# Projected DOS for atomic kind C at iteration step i = 0, E(Fermi) =    -0.146086 a.u.
#     MO Eigenvalue [a.u.]      Occupation                 s                py                pz                px               d-2               d-1                d0               d+1               d+2
       1         -0.863453        1.000000        0.85639741        0.00000006        0.00000000        0.00000004        0.00000000        0.00000000        0.14360249        0.00000000        0.00000000
       2         -0.860478        1.000000        0.82269094        0.02365661        0.00000000        0.01951957        0.00044830        0.00000000        0.13314123        0.00000000        0.00054334
       3         -0.860476        1.000000        0.82269142        0.01543292        0.00000000        0.02774327        0.00063718        0.00000000        0.13314074        0.00000000        0.00035448
       4         -0.860475        1.000000        0.82269112        0.02317704        0.00000000        0.01999977        0.00045936        0.00000000        0.13314042        0.00000000        0.00053229
       5         -0.860472        1.000000        0.82269232        0.01723113        0.00000000        0.02594491        0.00059591        0.00000000        0.13313996        0.00000000        0.00039576
       6         -0.860471        1.000000        0.82269130        0.03213010        0.00000000        0.01104730        0.00025373        0.00000000        0.13313963        0.00000000        0.00073793
       7         -0.860470        1.000000        0.82269214        0.01790354        0.00000000        0.02527313        0.00058048        0.00000000        0.13313951        0.00000000        0.00041119
       8         -0.854087        1.000000        0.76622003        0.03944749        0.00000000        0.07409330        0.00219414        0.00000000        0.11553395        0.00000000        0.00251109
       9         -0.854087        1.000000        0.76621997        0.04344436        0.00000000        0.07009655        0.00223071        0.00000000        0.11553388        0.00000000        0.00247453
      10         -0.854087        1.000000        0.76621912        0.07124127        0.00000000        0.04230079        0.00248501        0.00000000        0.11553354        0.00000000        0.00222028
      11         -0.854086        1.000000        0.76621981        0.07444140        0.00000000        0.03909988        0.00251429        0.00000000        0.11553363        0.00000000        0.00219098
      12         -0.854085        1.000000        0.76621902        0.05342045        0.00000000        0.06012195        0.00232199        0.00000000        0.11553326        0.00000000        0.00238332
      13         -0.854085        1.000000        0.76621946        0.05863391        0.00000000        0.05490798        0.00236968        0.00000000        0.11553334        0.00000000        0.00233561
      14         -0.850820        1.000000        0.74210716        0.05513458        0.00000000        0.08766094        0.00446822        0.00000000        0.10781867        0.00000000        0.00281043
      15         -0.850818        1.000000        0.74210641        0.06191901        0.00000000        0.08087756        0.00412264        0.00000000        0.10781810        0.00000000        0.00315627
      16         -0.850817        1.000000        0.74210560        0.09354118        0.00000000        0.04925703        0.00251087        0.00000000        0.10781748        0.00000000        0.00476784
      17         -0.850815        1.000000        0.74210484        0.09276474        0.00000000        0.05003426        0.00255067        0.00000000        0.10781688        0.00000000        0.00472859
      18         -0.850814        1.000000        0.74210694        0.06420996        0.00000000        0.07858681        0.00400599        0.00000000        0.10781727        0.00000000        0.00327302
      19         -0.850812        1.000000        0.74210678        0.06082724        0.00000000        0.08196981        0.00417857        0.00000000        0.10781689        0.00000000        0.00310070
      20         -0.840912        1.000000        0.68140891        0.08627877        0.00000000        0.12784010        0.00700682        0.00000000        0.08780438        0.00000000        0.00966101
      21         -0.840911        1.000000        0.68140891        0.08646439        0.00000000        0.12765449        0.00749092        0.00000000        0.08780432        0.00000000        0.00917696
      22         -0.840911        1.000000        0.68140894        0.10289134        0.00000000        0.11122749        0.00965026        0.00000000        0.08780419        0.00000000        0.00701778
      23         -0.840910        1.000000        0.68140920        0.07155539        0.00000000        0.14256325        0.00813291        0.00000000        0.08780415        0.00000000        0.00853509
      24         -0.840909        1.000000        0.68140803        0.11396470        0.00000000        0.10015573        0.00864830        0.00000000        0.08780334        0.00000000        0.00801990
      25         -0.840908        1.000000        0.68140661        0.12676759        0.00000000        0.08735449        0.00809043        0.00000000        0.08780288        0.00000000        0.00857799
      26         -0.840908        1.000000        0.68140632        0.14261554        0.00000000        0.07150694        0.01060995        0.00000000        0.08780270        0.00000000        0.00605854
      27         -0.840907        1.000000        0.68140596        0.14916160        0.00000000        0.06496129        0.00803190        0.00000000        0.08780252        0.00000000        0.00863672
      28         -0.840907        1.000000        0.68140758        0.12757780        0.00000000        0.08654325        0.00886444        0.00000000        0.08780290        0.00000000        0.00780403
      29         -0.840906        1.000000        0.68140890        0.06730470        0.00000000        0.14681500        0.00879847        0.00000000        0.08780306        0.00000000        0.00786987
      30         -0.840905        1.000000        0.68140898        0.11883911        0.00000000        0.09528061        0.00725004        0.00000000        0.08780307        0.00000000        0.00941818
      31         -0.840904        1.000000        0.68140902        0.09131546        0.00000000        0.12280436        0.00743526        0.00000000        0.08780282        0.00000000        0.00923308
      32         -0.834274        1.000000        0.64775240        0.06603003        0.00000000        0.18533402        0.01790794        0.00000000        0.07659469        0.00000000        0.00638092
      33         -0.834274        1.000000        0.64775251        0.06329530        0.00000000        0.18806860        0.01817216        0.00000000        0.07659472        0.00000000        0.00611670
      34         -0.834273        1.000000        0.64774779        0.15782592        0.00000000        0.09354411        0.00903943        0.00000000        0.07659308        0.00000000        0.01524967
      35         -0.834273        1.000000        0.64774798        0.15319371        0.00000000        0.09817608        0.00948699        0.00000000        0.07659313        0.00000000        0.01480210
      36         -0.834273        1.000000        0.64774779        0.15781434        0.00000000        0.09355573        0.00904061        0.00000000        0.07659300        0.00000000        0.01524852
      37         -0.834273        1.000000        0.64774787        0.15595302        0.00000000        0.09541696        0.00922041        0.00000000        0.07659302        0.00000000        0.01506872
      38         -0.824322        1.000000        0.60554009        0.00698669        0.00000000        0.28969242        0.00715214        0.00000000        0.06224669        0.00000000        0.02838197
      39         -0.824322        1.000000        0.60553994        0.21586228        0.00000000        0.08081698        0.02283781        0.00000000        0.06224662        0.00000000        0.01269635
      40         -0.824321        1.000000        0.60553935        0.13129305        0.00000000        0.16538707        0.01648697        0.00000000        0.06224644        0.00000000        0.01904711
      41         -0.824321        1.000000        0.60553938        0.09164132        0.00000000        0.20503878        0.01350931        0.00000000        0.06224644        0.00000000        0.02202476
      42         -0.824320        1.000000        0.60553431        0.22209909        0.00000000        0.07458605        0.02330626        0.00000000        0.06224477        0.00000000        0.01222952
      43         -0.824320        1.000000        0.60553380        0.22217199        0.00000000        0.07451387        0.02331167        0.00000000        0.06224460        0.00000000        0.01222406
      44         -0.821007        1.000000        0.59260709        0.07211013        0.00000000        0.23705861        0.01941876        0.00000000        0.05808173        0.00000000        0.02072368
      45         -0.821006        1.000000        0.59260692        0.15682737        0.00000000        0.15234171        0.02200291        0.00000000        0.05808155        0.00000000        0.01813953
      46         -0.821006        1.000000        0.59260686        0.08035910        0.00000000        0.22880994        0.02126264        0.00000000        0.05808162        0.00000000        0.01887983
      47         -0.821005        1.000000        0.59260641        0.14106190        0.00000000        0.16810786        0.02246949        0.00000000        0.05808137        0.00000000        0.01767296
      48         -0.821003        1.000000        0.59260263        0.19538031        0.00000000        0.11379358        0.02316974        0.00000000        0.05807980        0.00000000        0.01697394
      49         -0.821003        1.000000        0.59260378        0.15994280        0.00000000        0.14922994        0.02205284        0.00000000        0.05808006        0.00000000        0.01809058
      50         -0.821003        1.000000        0.59260546        0.21600747        0.00000000        0.09316364        0.02082750        0.00000000        0.05808045        0.00000000        0.01931548
      51         -0.821003        1.000000        0.59260338        0.21276075        0.00000000        0.09641248        0.01075941        0.00000000        0.05807991        0.00000000        0.02938406
      52         -0.821002        1.000000        0.59260413        0.17039328        0.00000000        0.13877925        0.01949806        0.00000000        0.05808004        0.00000000        0.02064523
      53         -0.821002        1.000000        0.59260287        0.16752229        0.00000000        0.14165159        0.02232830        0.00000000        0.05807969        0.00000000        0.01781525
      54         -0.821002        1.000000        0.59260592        0.20512422        0.00000000        0.10404655        0.01829263        0.00000000        0.05808050        0.00000000        0.02185017
      55         -0.821001        1.000000        0.59260610        0.07755805        0.00000000        0.23161253        0.01877689        0.00000000        0.05808047        0.00000000        0.02136595
      56         -0.811070        1.000000        0.55823497        0.11669176        0.00000000        0.22462236        0.03516292        0.00000000        0.04701970        0.00000000        0.01826829
      57         -0.811070        1.000000        0.55823542        0.10986389        0.00000000        0.23144931        0.03623178        0.00000000        0.04701978        0.00000000        0.01719981
      58         -0.811069        1.000000        0.55823063        0.21482456        0.00000000        0.12649513        0.01980347        0.00000000        0.04701832        0.00000000        0.03362789
      59         -0.811068        1.000000        0.55823188        0.17356900        0.00000000        0.16774949        0.02626095        0.00000000        0.04701856        0.00000000        0.02717012
      60         -0.811066        1.000000        0.55823010        0.22115772        0.00000000        0.12016325        0.01881170        0.00000000        0.04701786        0.00000000        0.03461936
      61         -0.811064        1.000000        0.55823011        0.18785787        0.00000000        0.15346336        0.02402415        0.00000000        0.04701784        0.00000000        0.02940667
      62         -0.801176        1.000000        0.53014761        0.12799204        0.00000000        0.24025030        0.02768752        0.00000000        0.03771375        0.00000000        0.03620878
      63         -0.801176        1.000000        0.53014762        0.12590178        0.00000000        0.24234056        0.02736952        0.00000000        0.03771374        0.00000000        0.03652677
      64         -0.801176        1.000000        0.53014717        0.14817868        0.00000000        0.22006430        0.02880620        0.00000000        0.03771368        0.00000000        0.03508996
      65         -0.801176        1.000000        0.53014718        0.14615780        0.00000000        0.22208517        0.02847523        0.00000000        0.03771367        0.00000000        0.03542095
      66         -0.801172        1.000000        0.53014755        0.11974969        0.00000000        0.24849297        0.02498599        0.00000000        0.03771296        0.00000000        0.03891085
      67         -0.801172        1.000000        0.53014755        0.11216737        0.00000000        0.25607528        0.02411358        0.00000000        0.03771296        0.00000000        0.03978324
      68         -0.801172        1.000000        0.53014597        0.23031285        0.00000000        0.13793120        0.03635734        0.00000000        0.03771261        0.00000000        0.02754003
      69         -0.801171        1.000000        0.53014641        0.21883327        0.00000000        0.14941043        0.03426541        0.00000000        0.03771270        0.00000000        0.02963178
      70         -0.801171        1.000000        0.53014262        0.26912627        0.00000000        0.09912078        0.03494106        0.00000000        0.03771184        0.00000000        0.02895742
      71         -0.801171        1.000000        0.53014313        0.24471284        0.00000000        0.12353379        0.03657863        0.00000000        0.03771196        0.00000000        0.02731965
      72         -0.801171        1.000000        0.53014239        0.23235009        0.00000000        0.13589717        0.04196989        0.00000000        0.03771178        0.00000000        0.02192867
      73         -0.801171        1.000000        0.53014330        0.23400629        0.00000000        0.13424021        0.03783392        0.00000000        0.03771198        0.00000000        0.02606430
      74         -0.794582        1.000000        0.51211374        0.10471877        0.00000000        0.27679459        0.05043614        0.00000000        0.03255072        0.00000000        0.02338604
      75         -0.794582        1.000000        0.51211370        0.10520823        0.00000000        0.27630520        0.05044359        0.00000000        0.03255071        0.00000000        0.02337856
      76         -0.794582        1.000000        0.51211354        0.11017195        0.00000000        0.27134190        0.04988535        0.00000000        0.03255052        0.00000000        0.02393674
      77         -0.794581        1.000000        0.51211380        0.11028431        0.00000000        0.27122921        0.05095063        0.00000000        0.03255058        0.00000000        0.02287148
      78         -0.794580        1.000000        0.51210914        0.17280237        0.00000000        0.20871761        0.02637369        0.00000000        0.03254937        0.00000000        0.04744782
      79         -0.794580        1.000000        0.51210944        0.17435906        0.00000000        0.20716054        0.02696433        0.00000000        0.03254944        0.00000000        0.04685719
      80         -0.794580        1.000000        0.51210864        0.25194093        0.00000000        0.12957935        0.02193115        0.00000000        0.03254923        0.00000000        0.05189069
      81         -0.794580        1.000000        0.51210859        0.24564754        0.00000000        0.13587279        0.02267198        0.00000000        0.03254922        0.00000000        0.05114988
      82         -0.794579        1.000000        0.51210666        0.28811438        0.00000000        0.09340715        0.02813362        0.00000000        0.03254862        0.00000000        0.04568956
      83         -0.794579        1.000000        0.51210689        0.28331055        0.00000000        0.09821087        0.02694535        0.00000000        0.03254867        0.00000000        0.04687766
      84         -0.794578        1.000000        0.51210679        0.22465689        0.00000000        0.15686453        0.04415201        0.00000000        0.03254859        0.00000000        0.02967118
      85         -0.794578        1.000000        0.51210700        0.21791954        0.00000000        0.16360171        0.04404950        0.00000000        0.03254864        0.00000000        0.02977360
      86         -0.781457        1.000000        0.48135906        0.10083033        0.00000000        0.30235059        0.06865102        0.00000000        0.02391150        0.00000000        0.02289748
      87         -0.781457        1.000000        0.48135906        0.10083226        0.00000000        0.30234866        0.06865057        0.00000000        0.02391150        0.00000000        0.02289794
      88         -0.781453        1.000000        0.48135200        0.11079821        0.00000000        0.29239221        0.06639479        0.00000000        0.02390976        0.00000000        0.02515303
      89         -0.781453        1.000000        0.48135200        0.11357177        0.00000000        0.28961865        0.06576487        0.00000000        0.02390976        0.00000000        0.02578295
      90         -0.781453        1.000000        0.48135196        0.38936381        0.00000000        0.01382672        0.00313968        0.00000000        0.02390973        0.00000000        0.08840810
      91         -0.781453        1.000000        0.48135195        0.39417882        0.00000000        0.00901171        0.00204633        0.00000000        0.02390973        0.00000000        0.08950145
      92         -0.774959        1.000000        0.47019180        0.02247399        0.00000000        0.39408884        0.01685833        0.00000000        0.02008460        0.00000000        0.07630243
      93         -0.774959        1.000000        0.47019180        0.02159570        0.00000000        0.39496713        0.01671784        0.00000000        0.02008460        0.00000000        0.07644292
      94         -0.774959        1.000000        0.47019169        0.29149888        0.00000000        0.12506401        0.05989231        0.00000000        0.02008458        0.00000000        0.03326853
      95         -0.774959        1.000000        0.47019169        0.29240774        0.00000000        0.12415515        0.06003769        0.00000000        0.02008458        0.00000000        0.03312314
      96         -0.774955        1.000000        0.47018501        0.31086388        0.00000000        0.10570368        0.06298989        0.00000000        0.02008298        0.00000000        0.03017454
      97         -0.774955        1.000000        0.47018501        0.31086679        0.00000000        0.10570078        0.06299035        0.00000000        0.02008298        0.00000000        0.03017408
      98         -0.771696        1.000000        0.46337307        0.08395418        0.00000000        0.33549350        0.03587712        0.00000000        0.01852310        0.00000000        0.06277902
      99         -0.771695        1.000000        0.46337309        0.04513985        0.00000000        0.37430739        0.03022521        0.00000000        0.01852305        0.00000000        0.06843140
     100         -0.771695        1.000000        0.46337316        0.26169189        0.00000000        0.15775529        0.06931358        0.00000000        0.01852306        0.00000000        0.02934301
     101         -0.771695        1.000000        0.46337337        0.20673565        0.00000000        0.21271109        0.06255163        0.00000000        0.01852309        0.00000000        0.03610517
     102         -0.771692        1.000000        0.46337287        0.18730425        0.00000000        0.23214399        0.04073610        0.00000000        0.01852257        0.00000000        0.05792021
     103         -0.771691        1.000000        0.46337228        0.26023020        0.00000000        0.15921829        0.04548599        0.00000000        0.01852244        0.00000000        0.05317080
     104         -0.771691        1.000000        0.46337232        0.11084533        0.00000000        0.30860323        0.03265573        0.00000000        0.01852242        0.00000000        0.06600096
     105         -0.771690        1.000000        0.46337168        0.17506318        0.00000000        0.24438612        0.03519059        0.00000000        0.01852235        0.00000000        0.06346607
     106         -0.771690        1.000000        0.46336695        0.32174684        0.00000000        0.09770538        0.05046817        0.00000000        0.01852140        0.00000000        0.04819125
     107         -0.771690        1.000000        0.46336696        0.26823757        0.00000000        0.15121445        0.07227610        0.00000000        0.01852139        0.00000000        0.02638352
     108         -0.771689        1.000000        0.46336686        0.28249938        0.00000000        0.13695314        0.06966828        0.00000000        0.01852138        0.00000000        0.02899095
     109         -0.771689        1.000000        0.46336702        0.31327592        0.00000000        0.10617637        0.04749938        0.00000000        0.01852140        0.00000000        0.05115989
     110         -0.761941        1.000000        0.44503944        0.11978001        0.00000000        0.30706827        0.07628273        0.00000000        0.01436694        0.00000000        0.03746261
     111         -0.761941        1.000000        0.44503944        0.11888488        0.00000000        0.30796339        0.07616403        0.00000000        0.01436694        0.00000000        0.03758131
     112         -0.761940        1.000000        0.44503939        0.13325825        0.00000000        0.29359034        0.07621511        0.00000000        0.01436683        0.00000000        0.03753008
     113         -0.761940        1.000000        0.44503936        0.13038724        0.00000000        0.29646140        0.07559584        0.00000000        0.01436682        0.00000000        0.03814933
     114         -0.761937        1.000000        0.44503227        0.24502002        0.00000000        0.18183740        0.05805681        0.00000000        0.01436555        0.00000000        0.05568795
     115         -0.761937        1.000000        0.44503224        0.24338659        0.00000000        0.18347077        0.05960004        0.00000000        0.01436554        0.00000000        0.05414480
     116         -0.761936        1.000000        0.44503347        0.26079449        0.00000000        0.16606372        0.03356964        0.00000000        0.01436585        0.00000000        0.08017282
     117         -0.761936        1.000000        0.44503374        0.27046617        0.00000000        0.15639175        0.03380071        0.00000000        0.01436590        0.00000000        0.07994173
     118         -0.761936        1.000000        0.44503331        0.22626328        0.00000000        0.20059473        0.04168925        0.00000000        0.01436576        0.00000000        0.07205366
     119         -0.761936        1.000000        0.44503355        0.23683851        0.00000000        0.19001942        0.04055072        0.00000000        0.01436582        0.00000000        0.07319198
     120         -0.761934        1.000000        0.44503077        0.28785915        0.00000000        0.13900085        0.05552987        0.00000000        0.01436522        0.00000000        0.05821414
     121         -0.761934        1.000000        0.44503074        0.28822166        0.00000000        0.13863840        0.05541728        0.00000000        0.01436522        0.00000000        0.05832669
     122         -0.745842        1.000000        0.42022535        0.10892129        0.00000000        0.32677893        0.10132116        0.00000000        0.00897637        0.00000000        0.03377689
     123         -0.745837        1.000000        0.42022212        0.10892478        0.00000000        0.32677682        0.10132186        0.00000000        0.00897599        0.00000000        0.03377843
     124         -0.745837        1.000000        0.42021688        0.10894721        0.00000000        0.32676596        0.10132235        0.00000000        0.00897512        0.00000000        0.03377247
     125         -0.745837        1.000000        0.42021677        0.43569997        0.00000000        0.00001342        0.00000416        0.00000000        0.00897510        0.00000000        0.13509057
     126         -0.745833        1.000000        0.42021362        0.10894503        0.00000000        0.32677023        0.10132431        0.00000000        0.00897480        0.00000000        0.03377200
     127         -0.745833        1.000000        0.42021351        0.43570793        0.00000000        0.00000754        0.00000234        0.00000000        0.00897478        0.00000000        0.13509389
     128         -0.742687        1.000000        0.41814207        0.14625690        0.00000000        0.30339725        0.04855007        0.00000000        0.00778351        0.00000000        0.07587021
     129         -0.742687        1.000000        0.41814207        0.14329949        0.00000000        0.30635465        0.04812842        0.00000000        0.00778351        0.00000000        0.07629186
     130         -0.742687        1.000000        0.41814218        0.19269486        0.00000000        0.25695891        0.06028776        0.00000000        0.00778350        0.00000000        0.06413278
     131         -0.742687        1.000000        0.41814216        0.18982851        0.00000000        0.25982528        0.05988310        0.00000000        0.00778350        0.00000000        0.06453745
     132         -0.742683        1.000000        0.41814287        0.14515196        0.00000000        0.30450126        0.04617379        0.00000000        0.00778323        0.00000000        0.07824688
     133         -0.742683        1.000000        0.41814286        0.14656833        0.00000000        0.30308491        0.04625796        0.00000000        0.00778323        0.00000000        0.07816270
     134         -0.742682        1.000000        0.41814247        0.20864665        0.00000000        0.24100692        0.05501230        0.00000000        0.00778318        0.00000000        0.06940846
     135         -0.742682        1.000000        0.41814249        0.20844906        0.00000000        0.24120452        0.05479238        0.00000000        0.00778318        0.00000000        0.06962835
     136         -0.742680        1.000000        0.41813590        0.33308467        0.00000000        0.11657263        0.07968903        0.00000000        0.00778229        0.00000000        0.04473546
     137         -0.742680        1.000000        0.41813592        0.32290440        0.00000000        0.12675289        0.08569384        0.00000000        0.00778230        0.00000000        0.03873065
     138         -0.742680        1.000000        0.41813594        0.33054173        0.00000000        0.11911553        0.08091675        0.00000000        0.00778229        0.00000000        0.04350776
     139         -0.742680        1.000000        0.41813592        0.33053595        0.00000000        0.11912134        0.08114779        0.00000000        0.00778229        0.00000000        0.04327670
     140         -0.736305        1.000000        0.40916407        0.12915400        0.00000000        0.31870833        0.08660968        0.00000000        0.00634100        0.00000000        0.05002292
     141         -0.736305        1.000000        0.40916407        0.12882393        0.00000000        0.31903839        0.08647813        0.00000000        0.00634100        0.00000000        0.05015447
     142         -0.736301        1.000000        0.40915787        0.09381835        0.00000000        0.35405312        0.06468498        0.00000000        0.00634030        0.00000000        0.07194536
     143         -0.736301        1.000000        0.40915786        0.11282360        0.00000000        0.33504788        0.06281823        0.00000000        0.00634030        0.00000000        0.07381212
     144         -0.736301        1.000000        0.40915759        0.36746586        0.00000000        0.08040622        0.03522934        0.00000000        0.00634026        0.00000000        0.10140072