 DBCSR| Multiplication driver                                               XSMM
 DBCSR| Multrec recursion limit                                              512
 DBCSR| Multiplication stack size                                           1000
 DBCSR| Maximum elements for images                                    UNLIMITED
 DBCSR| Multiplicative factor virtual images                                   1
 DBCSR| Multiplication size stacks                                             3
 DBCSR| Number of 3D layers                                               SINGLE
 DBCSR| Use MPI memory allocation                                              T
 DBCSR| Use RMA algorithm                                                      F
 DBCSR| Use Communication thread                                               T
 DBCSR| Communication thread load                                             87


  **** **** ******  **  PROGRAM STARTED AT               2020-11-05 17:38:31.172
 ***** ** ***  *** **   PROGRAM STARTED ON           cresco6x326.portici.enea.it
 **    ****   ******    PROGRAM STARTED BY                                ftotti
 ***** **    ** ** **   PROGRAM PROCESS ID                               2951668
  **** **  *******  **  PROGRAM STARTED IN /gporq2/scratch_0/usr/ftotti/Andrea/G
                                           RAFENE/GRAFENE-15x15-alone-smear

 CP2K| version string:                                          CP2K version 6.1
 CP2K| source code revision number:                                    svn:18464
 CP2K| cp2kflags: libint fftw3 parallel mpi3 scalapack xsmm mkl                 
 CP2K| is freely available from                            https://www.cp2k.org/
 CP2K| Program compiled at                           Fri Feb 8 15:10:36 CET 2019
 CP2K| Program compiled on                           cresco6x001.portici.enea.it
 CP2K| Program compiled for                       CRESCO6_ifort_intelmpi_libxsmm
 CP2K| Data directory path             /gporq2/scratch_0/usr/gusso/cp2k-6.1/data
 CP2K| Input file name                        GrafeneAloneSmearCellOpt-1.restart
 
 GLOBAL| Force Environment number                                              1
 GLOBAL| Basis set file name            /afs/enea.it/por/user/ftotti/work/cp2k-d
 GLOBAL| Potential file name            /afs/enea.it/por/user/ftotti/work/cp2k-d
 GLOBAL| MM Potential file name                                     MM_POTENTIAL
 GLOBAL| Coordinate file name                                 Graphene-layer.xyz
 GLOBAL| Method name                                                        CP2K
 GLOBAL| Project name                                   GrafeneAloneSmearCellOpt
 GLOBAL| Preferred FFT library                                             FFTW3
 GLOBAL| Preferred diagonalization lib.                                       SL
 GLOBAL| Run type                                                   ENERGY_FORCE
 GLOBAL| All-to-all communication in single precision                          F
 GLOBAL| FFTs using library dependent lengths                                  F
 GLOBAL| Global print level                                               MEDIUM
 GLOBAL| Total number of message passing processes                           192
 GLOBAL| Number of threads for this process                                    1
 GLOBAL| This output is from process                                           0
 GLOBAL| CPU model name :  Intel(R) Xeon(R) Platinum 8160 CPU @ 2.10GHz

 MEMORY| system memory details [Kb]
 MEMORY|                        rank 0           min           max       average
 MEMORY| MemTotal            197578048     197575504     197578172     197577443
 MEMORY| MemFree             179699912     172974436     179950072     176536022
 MEMORY| Buffers                    24            20          2172           559
 MEMORY| Cached                 912904        912904       6356764       3006432
 MEMORY| Slab                  1211336        683100       5489956       2249406
 MEMORY| SReclaimable           531544        325272       4328040       1522286
 MEMORY| MemLikelyFree       181144384     180614816     181721212     181065299


 *** Fundamental physical constants (SI units) ***

 *** Literature: B. J. Mohr and B. N. Taylor,
 ***             CODATA recommended values of the fundamental physical
 ***             constants: 2006, Web Version 5.1
 ***             http://physics.nist.gov/constants

 Speed of light in vacuum [m/s]                             2.99792458000000E+08
 Magnetic constant or permeability of vacuum [N/A**2]       1.25663706143592E-06
 Electric constant or permittivity of vacuum [F/m]          8.85418781762039E-12
 Planck constant (h) [J*s]                                  6.62606896000000E-34
 Planck constant (h-bar) [J*s]                              1.05457162825177E-34
 Elementary charge [C]                                      1.60217648700000E-19
 Electron mass [kg]                                         9.10938215000000E-31
 Electron g factor [ ]                                     -2.00231930436220E+00
 Proton mass [kg]                                           1.67262163700000E-27
 Fine-structure constant                                    7.29735253760000E-03
 Rydberg constant [1/m]                                     1.09737315685270E+07
 Avogadro constant [1/mol]                                  6.02214179000000E+23
 Boltzmann constant [J/K]                                   1.38065040000000E-23
 Atomic mass unit [kg]                                      1.66053878200000E-27
 Bohr radius [m]                                            5.29177208590000E-11

 *** Conversion factors ***

 [u] -> [a.u.]                                              1.82288848426455E+03
 [Angstrom] -> [Bohr] = [a.u.]                              1.88972613288564E+00
 [a.u.] = [Bohr] -> [Angstrom]                              5.29177208590000E-01
 [a.u.] -> [s]                                              2.41888432650478E-17
 [a.u.] -> [fs]                                             2.41888432650478E-02
 [a.u.] -> [J]                                              4.35974393937059E-18
 [a.u.] -> [N]                                              8.23872205491840E-08
 [a.u.] -> [K]                                              3.15774647902944E+05
 [a.u.] -> [kJ/mol]                                         2.62549961709828E+03
 [a.u.] -> [kcal/mol]                                       6.27509468713739E+02
 [a.u.] -> [Pa]                                             2.94210107994716E+13
 [a.u.] -> [bar]                                            2.94210107994716E+08
 [a.u.] -> [atm]                                            2.90362800883016E+08
 [a.u.] -> [eV]                                             2.72113838565563E+01
 [a.u.] -> [Hz]                                             6.57968392072181E+15
 [a.u.] -> [1/cm] (wave numbers)                            2.19474631370540E+05
 [a.u./Bohr**2] -> [1/cm]                                   5.14048714338585E+03
 

 CELL_TOP| Volume [angstrom^3]:                                        94655.328
 CELL_TOP| Vector a [angstrom    39.515     0.000     0.000    |a| =      39.515
 CELL_TOP| Vector b [angstrom   -19.758    34.220     0.000    |b| =      39.515
 CELL_TOP| Vector c [angstrom     0.000     0.000    70.000    |c| =      70.000
 CELL_TOP| Angle (b,c), alpha [degree]:                                   90.000
 CELL_TOP| Angle (a,c), beta  [degree]:                                   90.000
 CELL_TOP| Angle (a,b), gamma [degree]:                                  120.001
 CELL_TOP| Numerically orthorhombic:                                          NO

 *** WARNING in atoms_input.F:122 :: Overwriting coordinates. Active    ***
 *** coordinates read from &COORD section. Active coordinates READ from ***
 *** &COORD section                                                     ***

 
 GENERATE|  Preliminary Number of Bonds generated:                             0
 GENERATE|  Achieved consistency in connectivity generation.

 CELL| Volume [angstrom^3]:                                            94655.328
 CELL| Vector a [angstrom]:      39.515     0.000     0.000    |a| =      39.515
 CELL| Vector b [angstrom]:     -19.758    34.220     0.000    |b| =      39.515
 CELL| Vector c [angstrom]:       0.000     0.000    70.000    |c| =      70.000
 CELL| Angle (b,c), alpha [degree]:                                       90.000
 CELL| Angle (a,c), beta  [degree]:                                       90.000
 CELL| Angle (a,b), gamma [degree]:                                      120.001
 CELL| Numerically orthorhombic:                                              NO

 CELL_REF| Volume [angstrom^3]:                                        94655.328
 CELL_REF| Vector a [angstrom    39.515     0.000     0.000    |a| =      39.515
 CELL_REF| Vector b [angstrom   -19.758    34.220     0.000    |b| =      39.515
 CELL_REF| Vector c [angstrom     0.000     0.000    70.000    |c| =      70.000
 CELL_REF| Angle (b,c), alpha [degree]:                                   90.000
 CELL_REF| Angle (a,c), beta  [degree]:                                   90.000
 CELL_REF| Angle (a,b), gamma [degree]:                                  120.001
 CELL_REF| Numerically orthorhombic:                                          NO

 *******************************************************************************
 *******************************************************************************
 **                                                                           **
 **     #####                         ##              ##                      **
 **    ##   ##            ##          ##              ##                      **
 **   ##     ##                       ##            ######                    **
 **   ##     ##  ##   ##  ##   #####  ##  ##   ####   ##    #####    #####    **
 **   ##     ##  ##   ##  ##  ##      ## ##   ##      ##   ##   ##  ##   ##   **
 **   ##  ## ##  ##   ##  ##  ##      ####     ###    ##   ######   ######    **
 **    ##  ###   ##   ##  ##  ##      ## ##      ##   ##   ##       ##        **
 **     #######   #####   ##   #####  ##  ##  ####    ##    #####   ##        **
 **           ##                                                    ##        **
 **                                                                           **
 **                                                ... make the atoms dance   **
 **                                                                           **
 **            Copyright (C) by CP2K developers group (2000 - 2018)           **
 **                                                                           **
 *******************************************************************************

 DFT| Spin unrestricted (spin-polarized) Kohn-Sham calculation               UKS
 DFT| Multiplicity                                                             1
 DFT| Number of spin states                                                    2
 DFT| Charge                                                                   0
 DFT| Self-interaction correction (SIC)                                       NO
 DFT| Cutoffs: density                                              1.000000E-10
 DFT|          gradient                                             1.000000E-10
 DFT|          tau                                                  1.000000E-09
 DFT|          cutoff_smoothing_range                               0.000000E+00
 DFT| XC density smoothing                                                  NONE
 DFT| XC derivatives                                                          PW
 FUNCTIONAL| ROUTINE=NEW
 FUNCTIONAL| TPSS:
 FUNCTIONAL| J. Tao, J.P.Perdew, V.N.Staroverov, E.Scuseria PRL, 91, 146401 (200
 FUNCTIONAL| 3) {LSD version}                                                   
 FUNCTIONAL| PBE:
 FUNCTIONAL| revPBE, Yingkay Zhang and Weitao Yang, Phys. Rev. Letter, vol 80,n 
 FUNCTIONAL| 4, p. 890, (1998){spin polarized}                                  
 vdW POTENTIAL|                                             Non-local Functional
 vdW POTENTIAL| Implementation: G. Roman-Perez, J. Soler, PRL 103: 096102 (2009)
 vdW POTENTIAL|                       T. Thonhauser et al, PRB 76: 125112 (2007)
 vdW POTENTIAL|       R. Sabatini et al, J.Phys:Condens Matter 24: 424209 (2012)
 vdW POTENTIAL| Based on QE implementation by Brian Kolb, Timo Thonhauser (2009)
 vdW POTENTIAL| RVV10 Functional:    R. Sabatini et al, PRB 87: 041108(R) (2013)

 QS| Method:                                                                 GPW
 QS| Density plane wave grid type                        NON-SPHERICAL FULLSPACE
 QS| Number of grid levels:                                                    5
 QS| Density cutoff [a.u.]:                                                250.0
 QS| Multi grid cutoff [a.u.]: 1) grid level                               250.0
 QS|                           2) grid level                                83.3
 QS|                           3) grid level                                27.8
 QS|                           4) grid level                                 9.3
 QS|                           5) grid level                                 3.1
 QS| Grid level progression factor:                                          3.0
 QS| Relative density cutoff [a.u.]:                                        27.5
 QS| Consistent realspace mapping and integration 
 QS| Interaction thresholds: eps_pgf_orb:                                1.0E-05
 QS|                         eps_filter_matrix:                          0.0E+00
 QS|                         eps_core_charge:                            1.0E-12
 QS|                         eps_rho_gspace:                             1.0E-10
 QS|                         eps_rho_rspace:                             1.0E-10
 QS|                         eps_gvg_rspace:                             1.0E-05
 QS|                         eps_ppl:                                    1.0E-02
 QS|                         eps_ppnl:                                   1.0E-07


 ATOMIC KIND INFORMATION

  1. Atomic kind: C                                     Number of atoms:     512

     Orbital Basis Set                                        DZVP-MOLOPT-SR-GTH

       Number of orbital shell sets:                                           1
       Number of orbital shells:                                               5
       Number of primitive Cartesian functions:                                5
       Number of Cartesian basis functions:                                   14
       Number of spherical basis functions:                                   13
       Norm type:                                                              2

       Normalised Cartesian orbitals:

                        Set   Shell   Orbital            Exponent    Coefficient

                          1       1    2s                5.605331       0.322515
                                                         2.113016       0.213043
                                                         0.769911      -0.209686
                                                         0.348157      -0.219794
                                                         0.128212      -0.022789

                          1       2    3s                5.605331       0.552234
                                                         2.113016       0.082072
                                                         0.769911       0.007843
                                                         0.348157       0.136893
                                                         0.128212       0.074283

                          1       3    3px               5.605331      -0.703879
                                                         2.113016      -0.642521
                                                         0.769911      -0.374851
                                                         0.348157      -0.139743
                                                         0.128212      -0.027849
                          1       3    3py               5.605331      -0.703879
                                                         2.113016      -0.642521
                                                         0.769911      -0.374851
                                                         0.348157      -0.139743
                                                         0.128212      -0.027849
                          1       3    3pz               5.605331      -0.703879
                                                         2.113016      -0.642521
                                                         0.769911      -0.374851
                                                         0.348157      -0.139743
                                                         0.128212      -0.027849

                          1       4    4px               5.605331      -0.480376
                                                         2.113016      -0.552894
                                                         0.769911      -0.316145
                                                         0.348157       0.210505
                                                         0.128212       0.076095
                          1       4    4py               5.605331      -0.480376
                                                         2.113016      -0.552894
                                                         0.769911      -0.316145
                                                         0.348157       0.210505
                                                         0.128212       0.076095
                          1       4    4pz               5.605331      -0.480376
                                                         2.113016      -0.552894
                                                         0.769911      -0.316145
                                                         0.348157       0.210505
                                                         0.128212       0.076095

                          1       5    4dx2              5.605331       0.640026
                                                         2.113016       0.274300
                                                         0.769911       0.446711
                                                         0.348157       0.028674
                                                         0.128212       0.029790
                          1       5    4dxy              5.605331       1.108557
                                                         2.113016       0.475102
                                                         0.769911       0.773726
                                                         0.348157       0.049666
                                                         0.128212       0.051599
                          1       5    4dxz              5.605331       1.108557
                                                         2.113016       0.475102
                                                         0.769911       0.773726
                                                         0.348157       0.049666
                                                         0.128212       0.051599
                          1       5    4dy2              5.605331       0.640026
                                                         2.113016       0.274300
                                                         0.769911       0.446711
                                                         0.348157       0.028674
                                                         0.128212       0.029790
                          1       5    4dyz              5.605331       1.108557
                                                         2.113016       0.475102
                                                         0.769911       0.773726
                                                         0.348157       0.049666
                                                         0.128212       0.051599
                          1       5    4dz2              5.605331       0.640026
                                                         2.113016       0.274300
                                                         0.769911       0.446711
                                                         0.348157       0.028674
                                                         0.128212       0.029790

     GTH Potential information for                                    GTH-PBE-q4

       Description:                       Goedecker-Teter-Hutter pseudopotential
                                           Goedecker et al., PRB 54, 1703 (1996)
                                          Hartwigsen et al., PRB 58, 3641 (1998)
                                                      Krack, TCA 114, 145 (2005)

       Gaussian exponent of the core charge distribution:               4.364419
       Electronic configuration (s p d ...):                               2   2

       Parameters of the local part of the GTH pseudopotential:

                          rloc        C1          C2          C3          C4
                        0.338471   -8.803674    1.339211

       Parameters of the non-local part of the GTH pseudopotential:

                   l      r(l)      h(i,j,l)

                   0    0.302576    9.622487
                   1    0.291507


 MOLECULE KIND INFORMATION


 All atoms are their own molecule, skipping detailed information


 TOTAL NUMBERS AND MAXIMUM NUMBERS

  Total number of            - Atomic kinds:                                   1
                             - Atoms:                                        512
                             - Shell sets:                                   512
                             - Shells:                                      2560
                             - Primitive Cartesian functions:               2560
                             - Cartesian basis functions:                   7168
                             - Spherical basis functions:                   6656

  Maximum angular momentum of- Orbital basis functions:                        2
                             - Local part of the GTH pseudopotential:          2
                             - Non-local part of the GTH pseudopotential:      0


 MODULE QUICKSTEP:  ATOMIC COORDINATES IN angstrom

  Atom  Kind  Element       X           Y           Z          Z(eff)       Mass

       1     1 C    6    1.633061    0.049389   20.425084      4.00      12.0107
       2     1 C    6    1.633045    1.475233   20.425038      4.00      12.0107
       3     1 C    6    4.102696    0.049427   20.425380      4.00      12.0107
       4     1 C    6    4.102675    1.475277   20.425459      4.00      12.0107
       5     1 C    6    0.398211    2.188160   20.424885      4.00      12.0107
       6     1 C    6    0.398240    3.614015   20.424790      4.00      12.0107
       7     1 C    6    2.867854    2.188193   20.425196      4.00      12.0107
       8     1 C    6    2.867884    3.614048   20.425013      4.00      12.0107
       9     1 C    6   -0.836586    4.326940   20.424920      4.00      12.0107
      10     1 C    6    4.102702    4.326959   20.425064      4.00      12.0107
      11     1 C    6    1.633050    4.326967   20.424903      4.00      12.0107
      12     1 C    6   -0.836620    1.475194   20.424967      4.00      12.0107
      13     1 C    6    5.337490    2.188202   20.425346      4.00      12.0107
      14     1 C    6    2.867897   -0.663522   20.425179      4.00      12.0107
      15     1 C    6    0.398244   -0.663582   20.424868      4.00      12.0107
      16     1 C    6    5.337522   -0.663496   20.425291      4.00      12.0107
      17     1 C    6   -0.836570    5.752817   20.424954      4.00      12.0107
      18     1 C    6    1.633071    5.752837   20.424989      4.00      12.0107
      19     1 C    6   -2.071375    6.465708   20.425013      4.00      12.0107
      20     1 C    6   -2.071374    7.891561   20.425198      4.00      12.0107
      21     1 C    6    0.398246    6.465756   20.425083      4.00      12.0107
      22     1 C    6    0.398258    7.891613   20.425313      4.00      12.0107
      23     1 C    6   -3.306206    8.604458   20.425109      4.00      12.0107
      24     1 C    6    1.633063    8.604537   20.425324      4.00      12.0107
      25     1 C    6   -0.836568    8.604516   20.425410      4.00      12.0107
      26     1 C    6   -3.306210    5.752754   20.424954      4.00      12.0107
      27     1 C    6    2.867877    6.465747   20.424909      4.00      12.0107
      28     1 C    6   -2.071430    3.613984   20.424914      4.00      12.0107
      29     1 C    6   -3.306257   10.030294   20.425073      4.00      12.0107
      30     1 C    6   -0.836627   10.030362   20.425490      4.00      12.0107
      31     1 C    6   -4.541119   10.743207   20.424917      4.00      12.0107
      32     1 C    6   -4.541208   12.169073   20.424840      4.00      12.0107
      33     1 C    6   -2.071476   10.743271   20.425240      4.00      12.0107
      34     1 C    6   -2.071574   12.169138   20.425072      4.00      12.0107
      35     1 C    6   -5.776073   12.882000   20.424951      4.00      12.0107
      36     1 C    6   -0.836797   12.882074   20.425124      4.00      12.0107
      37     1 C    6   -3.306446   12.882063   20.424954      4.00      12.0107
      38     1 C    6   -5.775928   10.030233   20.424987      4.00      12.0107
      39     1 C    6    0.398166   10.743295   20.425382      4.00      12.0107
      40     1 C    6   -4.541035    7.891495   20.424879      4.00      12.0107
      41     1 C    6   -5.776191   14.307911   20.424997      4.00      12.0107
      42     1 C    6   -3.306557   14.307961   20.425056      4.00      12.0107
      43     1 C    6   -7.011029   15.020835   20.425041      4.00      12.0107
      44     1 C    6   -7.011152   16.446734   20.425225      4.00      12.0107
      45     1 C    6   -4.541422   15.020898   20.425126      4.00      12.0107
      46     1 C    6   -4.541529   16.446793   20.425356      4.00      12.0107
      47     1 C    6   -8.246006   17.159671   20.425125      4.00      12.0107
      48     1 C    6   -3.306748   17.159741   20.425367      4.00      12.0107
      49     1 C    6   -5.776381   17.159727   20.425438      4.00      12.0107
      50     1 C    6   -8.245819   14.307843   20.424983      4.00      12.0107
      51     1 C    6   -2.071787   15.020903   20.424966      4.00      12.0107
      52     1 C    6   -7.010877   12.169017   20.424934      4.00      12.0107
      53     1 C    6   -8.246138   18.585540   20.425100      4.00      12.0107
      54     1 C    6   -5.776509   18.585602   20.425526      4.00      12.0107
      55     1 C    6   -9.481006   19.298475   20.424935      4.00      12.0107
      56     1 C    6   -9.481093   20.724342   20.424859      4.00      12.0107
      57     1 C    6   -7.011368   19.298528   20.425260      4.00      12.0107
      58     1 C    6   -7.011464   20.724398   20.425100      4.00      12.0107
      59     1 C    6  -10.715948   21.437255   20.424966      4.00      12.0107
      60     1 C    6   -5.776672   21.437319   20.425141      4.00      12.0107
      61     1 C    6   -8.246320   21.437318   20.424963      4.00      12.0107
      62     1 C    6  -10.715801   18.585488   20.425011      4.00      12.0107
      63     1 C    6   -4.541721   19.298540   20.425421      4.00      12.0107
      64     1 C    6   -9.480799   16.446677   20.424904      4.00      12.0107
      65     1 C    6  -10.715986   22.863134   20.424992      4.00      12.0107
      66     1 C    6   -8.246353   22.863190   20.425053      4.00      12.0107
      67     1 C    6  -11.950797   23.576015   20.425045      4.00      12.0107
      68     1 C    6  -11.950784   25.001873   20.425221      4.00      12.0107
      69     1 C    6   -9.481189   23.576092   20.425121      4.00      12.0107
      70     1 C    6   -9.481179   25.001946   20.425344      4.00      12.0107
      71     1 C    6  -13.185595   25.714774   20.425129      4.00      12.0107
      72     1 C    6   -8.246379   25.714875   20.425358      4.00      12.0107
      73     1 C    6  -10.715984   25.714847   20.425433      4.00      12.0107
      74     1 C    6  -13.185621   22.863051   20.424993      4.00      12.0107
      75     1 C    6   -7.011559   23.576106   20.424960      4.00      12.0107
      76     1 C    6  -11.950765   20.724287   20.424954      4.00      12.0107
      77     1 C    6  -13.185602   27.140615   20.425085      4.00      12.0107
      78     1 C    6  -10.715986   27.140693   20.425514      4.00      12.0107
      79     1 C    6  -14.420449   27.853521   20.424923      4.00      12.0107
      80     1 C    6  -14.420454   29.279377   20.424817      4.00      12.0107
      81     1 C    6  -11.950802   27.853596   20.425242      4.00      12.0107
      82     1 C    6  -11.950794   29.279453   20.425059      4.00      12.0107
      83     1 C    6  -15.655306   29.992298   20.424938      4.00      12.0107
      84     1 C    6  -10.715992   29.992398   20.425097      4.00      12.0107
      85     1 C    6  -13.185650   29.992345   20.424926      4.00      12.0107
      86     1 C    6  -15.655282   27.140560   20.424997      4.00      12.0107
      87     1 C    6   -9.481184   27.853636   20.425398      4.00      12.0107
      88     1 C    6  -14.420427   25.001806   20.424905      4.00      12.0107
      89     1 C    6    6.572313    0.049444   20.425301      4.00      12.0107
      90     1 C    6    6.572299    1.475290   20.425264      4.00      12.0107
      91     1 C    6    9.041955    0.049534   20.424921      4.00      12.0107
      92     1 C    6    9.041952    1.475363   20.424980      4.00      12.0107
      93     1 C    6    5.337517    3.614056   20.425125      4.00      12.0107
      94     1 C    6    7.807113    2.188266   20.425044      4.00      12.0107
      95     1 C    6    7.807137    3.614113   20.424906      4.00      12.0107
      96     1 C    6    9.042002    4.327055   20.424923      4.00      12.0107
      97     1 C    6    6.572338    4.327013   20.424986      4.00      12.0107
      98     1 C    6   10.276810    2.188309   20.424905      4.00      12.0107
      99     1 C    6    7.807166   -0.663458   20.425027      4.00      12.0107
     100     1 C    6   10.276821   -0.663381   20.424896      4.00      12.0107
     101     1 C    6    4.102718    5.752828   20.424863      4.00      12.0107
     102     1 C    6    6.572350    5.752879   20.424953      4.00      12.0107
     103     1 C    6    2.867893    7.891608   20.425039      4.00      12.0107
     104     1 C    6    5.337539    6.465779   20.424809      4.00      12.0107
     105     1 C    6    5.337529    7.891641   20.424891      4.00      12.0107
     106     1 C    6    6.572361    8.604596   20.425121      4.00      12.0107
     107     1 C    6    4.102690    8.604582   20.424935      4.00      12.0107
     108     1 C    6    7.807193    6.465822   20.425014      4.00      12.0107
     109     1 C    6    1.633005   10.030384   20.425292      4.00      12.0107
     110     1 C    6    4.102644   10.030422   20.425002      4.00      12.0107
     111     1 C    6    0.398057   12.169162   20.425175      4.00      12.0107
     112     1 C    6    2.867793   10.743355   20.425073      4.00      12.0107
     113     1 C    6    2.867678   12.169220   20.424948      4.00      12.0107
     114     1 C    6    4.102500   12.882174   20.424971      4.00      12.0107
     115     1 C    6    1.632839   12.882137   20.425037      4.00      12.0107
     116     1 C    6    5.337465   10.743380   20.424937      4.00      12.0107
     117     1 C    6   -0.836905   14.307969   20.424935      4.00      12.0107
     118     1 C    6    1.632730   14.308028   20.425013      4.00      12.0107
     119     1 C    6   -2.071886   16.446792   20.425096      4.00      12.0107
     120     1 C    6    0.397881   15.020949   20.424872      4.00      12.0107
     121     1 C    6    0.397763   16.446836   20.424949      4.00      12.0107
     122     1 C    6    1.632574   17.159801   20.425171      4.00      12.0107
     123     1 C    6   -0.837111   17.159787   20.424983      4.00      12.0107
     124     1 C    6    2.867540   15.020988   20.425070      4.00      12.0107
     125     1 C    6   -3.306871   18.585611   20.425339      4.00      12.0107
     126     1 C    6   -0.837223   18.585641   20.425054      4.00      12.0107
     127     1 C    6   -4.541828   20.724408   20.425211      4.00      12.0107
     128     1 C    6   -2.072085   19.298584   20.425118      4.00      12.0107
     129     1 C    6   -2.072192   20.724447   20.424984      4.00      12.0107
     130     1 C    6   -0.837353   21.437385   20.424995      4.00      12.0107
     131     1 C    6   -3.307023   21.437358   20.425062      4.00      12.0107
     132     1 C    6    0.397592   19.298599   20.424979      4.00      12.0107
     133     1 C    6   -5.776705   22.863192   20.424946      4.00      12.0107
     134     1 C    6   -3.307056   22.863226   20.425027      4.00      12.0107
     135     1 C    6   -7.011554   25.001956   20.425082      4.00      12.0107
     136     1 C    6   -4.541882   23.576129   20.424875      4.00      12.0107
     137     1 C    6   -4.541902   25.001980   20.424948      4.00      12.0107
     138     1 C    6   -3.307056   25.714911   20.425161      4.00      12.0107
     139     1 C    6   -5.776747   25.714908   20.424970      4.00      12.0107
     140     1 C    6   -2.072212   23.576156   20.425070      4.00      12.0107
     141     1 C    6   -8.246389   27.140714   20.425319      4.00      12.0107
     142     1 C    6   -5.776766   27.140729   20.425031      4.00      12.0107
     143     1 C    6   -9.481175   29.279495   20.425173      4.00      12.0107
     144     1 C    6   -7.011584   27.853668   20.425094      4.00      12.0107
     145     1 C    6   -7.011575   29.279518   20.424949      4.00      12.0107
     146     1 C    6   -5.776719   29.992438   20.424959      4.00      12.0107
     147     1 C    6   -8.246364   29.992451   20.425022      4.00      12.0107
     148     1 C    6   -4.541921   27.853659   20.424952      4.00      12.0107
     149     1 C    6   11.511656    0.049556   20.425115      4.00      12.0107
     150     1 C    6   11.511668    1.475385   20.425062      4.00      12.0107
     151     1 C    6   13.981361    0.049480   20.425397      4.00      12.0107
     152     1 C    6   13.981394    1.475314   20.425464      4.00      12.0107
     153     1 C    6   10.276861    3.614147   20.424810      4.00      12.0107
     154     1 C    6   12.746547    2.188261   20.425205      4.00      12.0107
     155     1 C    6   12.746608    3.614099   20.425023      4.00      12.0107
     156     1 C    6   13.981496    4.326937   20.425052      4.00      12.0107
     157     1 C    6   11.511735    4.327030   20.424902      4.00      12.0107
     158     1 C    6   15.216289    2.188160   20.425348      4.00      12.0107
     159     1 C    6   12.746500   -0.663386   20.425205      4.00      12.0107
     160     1 C    6   15.216216   -0.663462   20.425301      4.00      12.0107
     161     1 C    6    9.042015    5.752921   20.424960      4.00      12.0107
     162     1 C    6   11.511758    5.752885   20.424992      4.00      12.0107
     163     1 C    6    7.807198    7.891674   20.425196      4.00      12.0107
     164     1 C    6   10.276886    6.465801   20.425073      4.00      12.0107
     165     1 C    6   10.276913    7.891646   20.425294      4.00      12.0107
     166     1 C    6   11.511793    8.604506   20.425307      4.00      12.0107
     167     1 C    6    9.042060    8.604569   20.425393      4.00      12.0107
     168     1 C    6   12.746632    6.465732   20.424898      4.00      12.0107
     169     1 C    6    6.572332   10.030434   20.425071      4.00      12.0107
     170     1 C    6    9.042052   10.030405   20.425464      4.00      12.0107
     171     1 C    6    5.337388   12.169237   20.424847      4.00      12.0107
     172     1 C    6    7.807178   10.743337   20.425225      4.00      12.0107
     173     1 C    6    7.807122   12.169189   20.425052      4.00      12.0107
     174     1 C    6    9.041980   12.882045   20.425090      4.00      12.0107
     175     1 C    6    6.572221   12.882137   20.424950      4.00      12.0107
     176     1 C    6   10.276924   10.743265   20.425350      4.00      12.0107
     177     1 C    6    4.102397   14.308062   20.425011      4.00      12.0107
     178     1 C    6    6.572140   14.308011   20.425042      4.00      12.0107
     179     1 C    6    2.867439   16.446861   20.425245      4.00      12.0107
     180     1 C    6    5.337237   15.020951   20.425126      4.00      12.0107
     181     1 C    6    5.337157   16.446816   20.425342      4.00      12.0107
     182     1 C    6    6.572009   17.159684   20.425357      4.00      12.0107
     183     1 C    6    4.102278   17.159759   20.425445      4.00      12.0107
     184     1 C    6    7.806986   15.020869   20.424949      4.00      12.0107
     185     1 C    6    1.632471   18.585650   20.425122      4.00      12.0107
     186     1 C    6    4.102187   18.585606   20.425515      4.00      12.0107
     187     1 C    6    0.397520   20.724452   20.424890      4.00      12.0107
     188     1 C    6    2.867306   19.298549   20.425275      4.00      12.0107
     189     1 C    6    2.867243   20.724400   20.425099      4.00      12.0107
     190     1 C    6    4.102100   21.437256   20.425129      4.00      12.0107
     191     1 C    6    1.632361   21.437343   20.424977      4.00      12.0107
     192     1 C    6    5.337040   19.298472   20.425405      4.00      12.0107
     193     1 C    6   -0.837378   22.863254   20.425023      4.00      12.0107
     194     1 C    6    1.632356   22.863203   20.425061      4.00      12.0107
     195     1 C    6   -2.072215   25.002000   20.425248      4.00      12.0107
     196     1 C    6    0.397485   23.576127   20.425127      4.00      12.0107
     197     1 C    6    0.397505   25.001967   20.425345      4.00      12.0107
     198     1 C    6    1.632383   25.714824   20.425355      4.00      12.0107
     199     1 C    6   -0.837348   25.714882   20.425442      4.00      12.0107
     200     1 C    6    2.867220   23.576054   20.424957      4.00      12.0107
     201     1 C    6   -3.307070   27.140732   20.425110      4.00      12.0107
     202     1 C    6   -0.837347   27.140707   20.425510      4.00      12.0107
     203     1 C    6   -4.541876   29.279497   20.424852      4.00      12.0107
     204     1 C    6   -2.072204   27.853621   20.425255      4.00      12.0107
     205     1 C    6   -2.072147   29.279457   20.425065      4.00      12.0107
     206     1 C    6   -0.837266   29.992318   20.425094      4.00      12.0107
     207     1 C    6   -3.307014   29.992383   20.424939      4.00      12.0107
     208     1 C    6    0.397539   27.853568   20.425394      4.00      12.0107
     209     1 C    6   16.451089    0.049395   20.425314      4.00      12.0107
     210     1 C    6   16.451135    1.475227   20.425268      4.00      12.0107
     211     1 C    6   18.920853    0.049359   20.424921      4.00      12.0107
     212     1 C    6   18.920895    1.475176   20.424976      4.00      12.0107
     213     1 C    6   15.216348    3.614002   20.425132      4.00      12.0107
     214     1 C    6   17.686034    2.188112   20.425042      4.00      12.0107
     215     1 C    6   17.686081    3.613949   20.424910      4.00      12.0107
     216     1 C    6   18.920994    4.326821   20.424895      4.00      12.0107
     217     1 C    6   16.451246    4.326870   20.424969      4.00      12.0107
     218     1 C    6   20.155804    2.188059   20.424884      4.00      12.0107
     219     1 C    6   17.685973   -0.663536   20.425026      4.00      12.0107
     220     1 C    6   20.155744   -0.663583   20.424881      4.00      12.0107
     221     1 C    6   13.981516    5.752794   20.424855      4.00      12.0107
     222     1 C    6   16.451258    5.752722   20.424944      4.00      12.0107
     223     1 C    6   12.746670    7.891574   20.425017      4.00      12.0107
     224     1 C    6   15.216414    6.465651   20.424781      4.00      12.0107
     225     1 C    6   15.216430    7.891493   20.424866      4.00      12.0107
     226     1 C    6   16.451327    8.604362   20.425075      4.00      12.0107
     227     1 C    6   13.981558    8.604451   20.424913      4.00      12.0107
     228     1 C    6   17.686154    6.465589   20.424976      4.00      12.0107
     229     1 C    6   11.511797   10.030335   20.425267      4.00      12.0107
     230     1 C    6   13.981561   10.030265   20.424977      4.00      12.0107
     231     1 C    6   10.276871   12.169112   20.425151      4.00      12.0107
     232     1 C    6   12.746680   10.743210   20.425044      4.00      12.0107
     233     1 C    6   12.746617   12.169051   20.424927      4.00      12.0107
     234     1 C    6   13.981504   12.881924   20.424920      4.00      12.0107
     235     1 C    6   11.511747   12.881983   20.424994      4.00      12.0107
     236     1 C    6   15.216450   10.743136   20.424890      4.00      12.0107
     237     1 C    6    9.041908   14.307919   20.424903      4.00      12.0107
     238     1 C    6   11.511668   14.307851   20.424981      4.00      12.0107
     239     1 C    6    7.806914   16.446732   20.425065      4.00      12.0107
     240     1 C    6   10.276784   15.020792   20.424827      4.00      12.0107
     241     1 C    6   10.276687   16.446657   20.424908      4.00      12.0107
     242     1 C    6   11.511558   17.159548   20.425114      4.00      12.0107
     243     1 C    6    9.041775   17.159625   20.424956      4.00      12.0107
     244     1 C    6   12.746539   15.020735   20.425012      4.00      12.0107
     245     1 C    6    6.571922   18.585529   20.425319      4.00      12.0107
     246     1 C    6    9.041684   18.585459   20.425023      4.00      12.0107
     247     1 C    6    5.336971   20.724322   20.425198      4.00      12.0107
     248     1 C    6    7.806786   19.298415   20.425092      4.00      12.0107
     249     1 C    6    7.806709   20.724262   20.424966      4.00      12.0107
     250     1 C    6    9.041610   21.437136   20.424953      4.00      12.0107
     251     1 C    6    6.571850   21.437192   20.425031      4.00      12.0107
     252     1 C    6   10.276560   19.298346   20.424935      4.00      12.0107
     253     1 C    6    4.102105   22.863118   20.424929      4.00      12.0107
     254     1 C    6    6.571851   22.863049   20.425002      4.00      12.0107
     255     1 C    6    2.867256   25.001896   20.425069      4.00      12.0107
     256     1 C    6    5.337002   23.575983   20.424846      4.00      12.0107
     257     1 C    6    5.337018   25.001828   20.424919      4.00      12.0107
     258     1 C    6    6.571921   25.714700   20.425121      4.00      12.0107
     259     1 C    6    4.102143   25.714780   20.424956      4.00      12.0107
     260     1 C    6    7.806752   23.575917   20.425024      4.00      12.0107
     261     1 C    6    1.632392   27.140648   20.425313      4.00      12.0107
     262     1 C    6    4.102152   27.140594   20.425017      4.00      12.0107
     263     1 C    6    0.397593   29.279407   20.425169      4.00      12.0107
     264     1 C    6    2.867287   27.853531   20.425080      4.00      12.0107
     265     1 C    6    2.867335   29.279367   20.424945      4.00      12.0107
     266     1 C    6    4.102255   29.992243   20.424926      4.00      12.0107
     267     1 C    6    1.632496   29.992283   20.425004      4.00      12.0107
     268     1 C    6    5.337060   27.853470   20.424922      4.00      12.0107
     269     1 C    6   21.390637    0.049302   20.425087      4.00      12.0107
     270     1 C    6   21.390668    1.475124   20.425032      4.00      12.0107
     271     1 C    6   23.860354    0.049269   20.425362      4.00      12.0107
     272     1 C    6   23.860377    1.475105   20.425430      4.00      12.0107
     273     1 C    6   20.155860    3.613892   20.424782      4.00      12.0107
     274     1 C    6   22.625539    2.188018   20.425178      4.00      12.0107
     275     1 C    6   22.625585    3.613859   20.424991      4.00      12.0107
     276     1 C    6   23.860408    4.326770   20.425026      4.00      12.0107
     277     1 C    6   21.390724    4.326774   20.424869      4.00      12.0107
     278     1 C    6   25.095209    2.188022   20.425326      4.00      12.0107
     279     1 C    6   22.625498   -0.663622   20.425168      4.00      12.0107
     280     1 C    6   25.095200   -0.663648   20.425265      4.00      12.0107
     281     1 C    6   18.920991    5.752678   20.424929      4.00      12.0107
     282     1 C    6   21.390713    5.752631   20.424956      4.00      12.0107
     283     1 C    6   17.686170    7.891427   20.425157      4.00      12.0107
     284     1 C    6   20.155857    6.465546   20.425033      4.00      12.0107
     285     1 C    6   20.155868    7.891392   20.425252      4.00      12.0107
     286     1 C    6   21.390688    8.604313   20.425266      4.00      12.0107
     287     1 C    6   18.921032    8.604307   20.425347      4.00      12.0107
     288     1 C    6   22.625526    6.465543   20.424859      4.00      12.0107
     289     1 C    6   16.451324   10.030183   20.425034      4.00      12.0107
     290     1 C    6   18.921021   10.030144   20.425425      4.00      12.0107
     291     1 C    6   15.216397   12.168977   20.424805      4.00      12.0107
     292     1 C    6   17.686170   10.743073   20.425175      4.00      12.0107
     293     1 C    6   17.686106   12.168929   20.425015      4.00      12.0107
     294     1 C    6   18.920893   12.881860   20.425044      4.00      12.0107
     295     1 C    6   16.451225   12.881869   20.424897      4.00      12.0107
     296     1 C    6   20.155829   10.743073   20.425310      4.00      12.0107
     297     1 C    6   13.981408   14.307800   20.424962      4.00      12.0107
     298     1 C    6   16.451126   14.307750   20.424997      4.00      12.0107
     299     1 C    6   12.746441   16.446599   20.425191      4.00      12.0107
     300     1 C    6   15.216243   15.020688   20.425070      4.00      12.0107
     301     1 C    6   15.216143   16.446562   20.425291      4.00      12.0107
     302     1 C    6   16.450932   17.159504   20.425310      4.00      12.0107
     303     1 C    6   13.981277   17.159499   20.425385      4.00      12.0107
     304     1 C    6   17.685903   15.020684   20.424900      4.00      12.0107
     305     1 C    6   11.511459   18.585391   20.425074      4.00      12.0107
     306     1 C    6   13.981168   18.585359   20.425471      4.00      12.0107
     307     1 C    6   10.276499   20.724196   20.424842      4.00      12.0107
     308     1 C    6   12.746295   19.298295   20.425223      4.00      12.0107
     309     1 C    6   12.746220   20.724158   20.425057      4.00      12.0107
     310     1 C    6   13.981019   21.437088   20.425092      4.00      12.0107
     311     1 C    6   11.511344   21.437093   20.424936      4.00      12.0107
     312     1 C    6   15.215963   19.298298   20.425364      4.00      12.0107
     313     1 C    6    9.041599   22.863004   20.424975      4.00      12.0107
     314     1 C    6   11.511328   22.862966   20.425014      4.00      12.0107
     315     1 C    6    7.806769   25.001762   20.425201      4.00      12.0107
     316     1 C    6   10.276468   23.575884   20.425085      4.00      12.0107
     317     1 C    6   10.276493   25.001735   20.425301      4.00      12.0107
     318     1 C    6   11.511330   25.714653   20.425321      4.00      12.0107
     319     1 C    6    9.041647   25.714639   20.425397      4.00      12.0107
     320     1 C    6   12.746141   23.575887   20.424924      4.00      12.0107
     321     1 C    6    6.571926   27.140522   20.425073      4.00      12.0107
     322     1 C    6    9.041653   27.140471   20.425477      4.00      12.0107
     323     1 C    6    5.337119   29.279306   20.424820      4.00      12.0107
     324     1 C    6    7.806805   27.853394   20.425221      4.00      12.0107
     325     1 C    6    7.806845   29.279237   20.425035      4.00      12.0107
     326     1 C    6    9.041678   29.992131   20.425070      4.00      12.0107
     327     1 C    6    6.571990   29.992182   20.424908      4.00      12.0107
     328     1 C    6   10.276498   27.853379   20.425364      4.00      12.0107
     329     1 C    6   26.330014    0.049262   20.425285      4.00      12.0107
     330     1 C    6   26.330021    1.475103   20.425253      4.00      12.0107
     331     1 C    6   28.799654    0.049270   20.424892      4.00      12.0107
     332     1 C    6   28.799654    1.475104   20.424966      4.00      12.0107
     333     1 C    6   25.095235    3.613871   20.425112      4.00      12.0107
     334     1 C    6   27.564842    2.188045   20.425018      4.00      12.0107
     335     1 C    6   27.564854    3.613892   20.424900      4.00      12.0107
     336     1 C    6   28.799697    4.326824   20.424889      4.00      12.0107
     337     1 C    6   26.330059    4.326804   20.424947      4.00      12.0107
     338     1 C    6   30.034483    2.188059   20.424873      4.00      12.0107
     339     1 C    6   27.564856   -0.663682   20.425011      4.00      12.0107
     340     1 C    6   30.034501   -0.663674   20.424864      4.00      12.0107
     341     1 C    6   23.860388    5.752634   20.424830      4.00      12.0107
     342     1 C    6   26.330037    5.752663   20.424922      4.00      12.0107
     343     1 C    6   22.625531    7.891396   20.424992      4.00      12.0107
     344     1 C    6   25.095216    6.465567   20.424742      4.00      12.0107
     345     1 C    6   25.095194    7.891420   20.424837      4.00      12.0107
     346     1 C    6   26.330035    8.604349   20.425055      4.00      12.0107
     347     1 C    6   23.860345    8.604355   20.424865      4.00      12.0107
     348     1 C    6   27.564875    6.465584   20.424968      4.00      12.0107
     349     1 C    6   21.390665   10.030158   20.425240      4.00      12.0107
     350     1 C    6   23.860317   10.030189   20.424951      4.00      12.0107
     351     1 C    6   20.155744   12.168940   20.425123      4.00      12.0107
     352     1 C    6   22.625467   10.743122   20.424999      4.00      12.0107
     353     1 C    6   22.625366   12.168987   20.424901      4.00      12.0107
     354     1 C    6   23.860186   12.881940   20.424893      4.00      12.0107
     355     1 C    6   21.390533   12.881908   20.424953      4.00      12.0107
     356     1 C    6   25.095144   10.743133   20.424858      4.00      12.0107
     357     1 C    6   18.920789   14.307754   20.424870      4.00      12.0107
     358     1 C    6   21.390421   14.307801   20.424947      4.00      12.0107
     359     1 C    6   17.685801   16.446566   20.425032      4.00      12.0107
     360     1 C    6   20.155577   15.020728   20.424777      4.00      12.0107
     361     1 C    6   20.155451   16.446614   20.424870      4.00      12.0107
     362     1 C    6   21.390250   17.159586   20.425085      4.00      12.0107
     363     1 C    6   18.920575   17.159558   20.424908      4.00      12.0107
     364     1 C    6   22.625222   15.020768   20.424991      4.00      12.0107
     365     1 C    6   16.450812   18.585370   20.425290      4.00      12.0107
     366     1 C    6   18.920446   18.585412   20.424995      4.00      12.0107
     367     1 C    6   15.215860   20.724172   20.425174      4.00      12.0107
     368     1 C    6   17.685588   19.298354   20.425056      4.00      12.0107
     369     1 C    6   17.685467   20.724222   20.424945      4.00      12.0107
     370     1 C    6   18.920288   21.437170   20.424937      4.00      12.0107
     371     1 C    6   16.450651   21.437141   20.425001      4.00      12.0107
     372     1 C    6   20.155245   19.298376   20.424904      4.00      12.0107
     373     1 C    6   13.980995   22.862970   20.424902      4.00      12.0107
     374     1 C    6   16.450623   22.863018   20.424980      4.00      12.0107
     375     1 C    6   12.746170   25.001744   20.425046      4.00      12.0107
     376     1 C    6   15.215813   23.575925   20.424810      4.00      12.0107
     377     1 C    6   15.215820   25.001782   20.424894      4.00      12.0107
     378     1 C    6   16.450655   25.714725   20.425105      4.00      12.0107
     379     1 C    6   13.980986   25.714710   20.424922      4.00      12.0107
     380     1 C    6   17.685454   23.575960   20.425016      4.00      12.0107
     381     1 C    6   11.511331   27.140489   20.425297      4.00      12.0107
     382     1 C    6   13.980980   27.140536   20.424999      4.00      12.0107
     383     1 C    6   10.276511   29.279229   20.425156      4.00      12.0107
     384     1 C    6   12.746152   27.853452   20.425053      4.00      12.0107
     385     1 C    6   12.746142   29.279302   20.424936      4.00      12.0107
     386     1 C    6   13.980971   29.992266   20.424921      4.00      12.0107
     387     1 C    6   11.511332   29.992186   20.424984      4.00      12.0107
     388     1 C    6   15.215806   27.853488   20.424904      4.00      12.0107
     389     1 C    6   31.269311    0.049294   20.425081      4.00      12.0107
     390     1 C    6   31.269305    1.475138   20.425031      4.00      12.0107
     391     1 C    6   33.738934    0.049397   20.425380      4.00      12.0107
     392     1 C    6   33.738923    1.475249   20.425457      4.00      12.0107
     393     1 C    6   30.034520    3.613913   20.424782      4.00      12.0107
     394     1 C    6   32.504097    2.188138   20.425189      4.00      12.0107
     395     1 C    6   32.504139    3.613998   20.425011      4.00      12.0107
     396     1 C    6   33.738946    4.326948   20.425049      4.00      12.0107
     397     1 C    6   31.269309    4.326898   20.424884      4.00      12.0107
     398     1 C    6   34.973736    2.188202   20.425335      4.00      12.0107
     399     1 C    6   32.504150   -0.663596   20.425172      4.00      12.0107
     400     1 C    6   34.973777   -0.663494   20.425284      4.00      12.0107
     401     1 C    6   28.799683    5.752695   20.424931      4.00      12.0107
     402     1 C    6   31.269316    5.752768   20.424975      4.00      12.0107
     403     1 C    6   27.564859    7.891436   20.425151      4.00      12.0107
     404     1 C    6   30.034480    6.465657   20.425053      4.00      12.0107
     405     1 C    6   30.034479    7.891512   20.425275      4.00      12.0107
     406     1 C    6   31.269278    8.604462   20.425291      4.00      12.0107
     407     1 C    6   28.799656    8.604406   20.425365      4.00      12.0107
     408     1 C    6   32.504111    6.465710   20.424892      4.00      12.0107
     409     1 C    6   26.329999   10.030193   20.425018      4.00      12.0107
     410     1 C    6   28.799624   10.030260   20.425442      4.00      12.0107
     411     1 C    6   25.095058   12.169004   20.424788      4.00      12.0107
     412     1 C    6   27.564783   10.743176   20.425178      4.00      12.0107
     413     1 C    6   27.564701   12.169056   20.425020      4.00      12.0107
     414     1 C    6   28.799473   12.882021   20.425060      4.00      12.0107
     415     1 C    6   26.329828   12.881991   20.424890      4.00      12.0107
     416     1 C    6   30.034412   10.743220   20.425329      4.00      12.0107
     417     1 C    6   23.860064   14.307847   20.424945      4.00      12.0107
     418     1 C    6   26.329711   14.307898   20.424996      4.00      12.0107
     419     1 C    6   22.625103   16.446659   20.425171      4.00      12.0107
     420     1 C    6   25.094837   15.020830   20.425071      4.00      12.0107
     421     1 C    6   25.094723   16.446727   20.425290      4.00      12.0107
     422     1 C    6   26.329493   17.159703   20.425312      4.00      12.0107
     423     1 C    6   23.859872   17.159654   20.425387      4.00      12.0107
     424     1 C    6   27.564474   15.020868   20.424909      4.00      12.0107
     425     1 C    6   21.390118   18.585446   20.425055      4.00      12.0107
     426     1 C    6   23.859749   18.585526   20.425475      4.00      12.0107
     427     1 C    6   20.155141   20.724241   20.424830      4.00      12.0107
     428     1 C    6   22.624886   19.298435   20.425211      4.00      12.0107
     429     1 C    6   22.624785   20.724303   20.425062      4.00      12.0107
     430     1 C    6   23.859573   21.437248   20.425093      4.00      12.0107
     431     1 C    6   21.389920   21.437212   20.424928      4.00      12.0107
     432     1 C    6   25.094526   19.298490   20.425361      4.00      12.0107
     433     1 C    6   18.920256   22.863054   20.424968      4.00      12.0107
     434     1 C    6   21.389898   22.863089   20.425016      4.00      12.0107
     435     1 C    6   17.685471   25.001819   20.425196      4.00      12.0107
     436     1 C    6   20.155064   23.576001   20.425095      4.00      12.0107
     437     1 C    6   20.155094   25.001863   20.425309      4.00      12.0107
     438     1 C    6   21.389907   25.714800   20.425329      4.00      12.0107
     439     1 C    6   18.920283   25.714773   20.425407      4.00      12.0107
     440     1 C    6   22.624698   23.576025   20.424934      4.00      12.0107
     441     1 C    6   16.450637   27.140558   20.425064      4.00      12.0107
     442     1 C    6   18.920270   27.140618   20.425489      4.00      12.0107
     443     1 C    6   15.215798   29.279341   20.424813      4.00      12.0107
     444     1 C    6   17.685436   27.853518   20.425217      4.00      12.0107
     445     1 C    6   17.685416   29.279375   20.425041      4.00      12.0107
     446     1 C    6   18.920213   29.992312   20.425069      4.00      12.0107
     447     1 C    6   16.450582   29.992306   20.424908      4.00      12.0107
     448     1 C    6   20.155077   27.853560   20.425362      4.00      12.0107
     449     1 C    6   20.155056   29.279407   20.425162      4.00      12.0107
     450     1 C    6   21.389905   27.140634   20.425297      4.00      12.0107
     451     1 C    6   22.624745   25.001871   20.425044      4.00      12.0107
     452     1 C    6   23.859562   22.863110   20.424910      4.00      12.0107
     453     1 C    6   25.094431   20.724343   20.425182      4.00      12.0107
     454     1 C    6   26.329384   18.585561   20.425293      4.00      12.0107
     455     1 C    6   27.564371   16.446751   20.425039      4.00      12.0107
     456     1 C    6   28.799371   14.307917   20.424888      4.00      12.0107
     457     1 C    6   30.034333   12.169084   20.425146      4.00      12.0107
     458     1 C    6   31.269253   10.030295   20.425266      4.00      12.0107
     459     1 C    6   32.504131    7.891550   20.425019      4.00      12.0107
     460     1 C    6   33.738973    5.752805   20.424860      4.00      12.0107
     461     1 C    6   34.973775    3.614048   20.425141      4.00      12.0107
     462     1 C    6   36.208566    1.475284   20.425270      4.00      12.0107
     463     1 C    6   36.208574    0.049446   20.425291      4.00      12.0107
     464     1 C    6   -0.836616    0.049366   20.424898      4.00      12.0107
     465     1 C    6   -2.071453    2.188142   20.425027      4.00      12.0107
     466     1 C    6   -3.306236    4.326900   20.424973      4.00      12.0107
     467     1 C    6   -4.541036    6.465655   20.424790      4.00      12.0107
     468     1 C    6   -5.775897    8.604417   20.424911      4.00      12.0107
     469     1 C    6   -7.010787   10.743162   20.425037      4.00      12.0107
     470     1 C    6   -8.245715   12.881952   20.424991      4.00      12.0107
     471     1 C    6   -9.480674   15.020791   20.424813      4.00      12.0107
     472     1 C    6  -10.715687   17.159641   20.424927      4.00      12.0107
     473     1 C    6  -11.950668   19.298436   20.425065      4.00      12.0107
     474     1 C    6  -13.185601   21.437195   20.425016      4.00      12.0107
     475     1 C    6  -14.420448   23.575959   20.424835      4.00      12.0107
     476     1 C    6  -15.655277   25.714739   20.424940      4.00      12.0107
     477     1 C    6  -16.890125   27.853501   20.425060      4.00      12.0107
     478     1 C    6  -16.890150   29.279348   20.424928      4.00      12.0107
     479     1 C    6   18.920214   31.418180   20.424873      4.00      12.0107
     480     1 C    6   17.685348   32.131120   20.424898      4.00      12.0107
     481     1 C    6   16.450568   31.418189   20.424987      4.00      12.0107
     482     1 C    6   13.980951   31.418150   20.424953      4.00      12.0107
     483     1 C    6   12.746123   32.131026   20.424998      4.00      12.0107
     484     1 C    6   11.511317   31.418055   20.424958      4.00      12.0107
     485     1 C    6    9.041674   31.418003   20.424867      4.00      12.0107
     486     1 C    6    7.806809   32.130941   20.424892      4.00      12.0107
     487     1 C    6   15.215730   32.131120   20.425068      4.00      12.0107
     488     1 C    6   10.276482   32.130948   20.424783      4.00      12.0107
     489     1 C    6    6.572003   31.418047   20.424981      4.00      12.0107
     490     1 C    6    5.337140   32.130983   20.425053      4.00      12.0107
     491     1 C    6    4.102283   31.418108   20.424951      4.00      12.0107
     492     1 C    6    1.632539   31.418138   20.424971      4.00      12.0107
     493     1 C    6    0.397674   32.131054   20.424810      4.00      12.0107
     494     1 C    6    2.867431   32.131018   20.424997      4.00      12.0107
     495     1 C    6   -0.837218   31.418178   20.424884      4.00      12.0107
     496     1 C    6   -3.306978   31.418242   20.425014      4.00      12.0107
     497     1 C    6   -2.072119   32.131101   20.424919      4.00      12.0107
     498     1 C    6   -5.776712   31.418309   20.424983      4.00      12.0107
     499     1 C    6   -7.011541   32.131245   20.425032      4.00      12.0107
     500     1 C    6   -4.541856   32.131173   20.425089      4.00      12.0107
     501     1 C    6   -8.246371   31.418324   20.424982      4.00      12.0107
     502     1 C    6  -10.716002   31.418275   20.424890      4.00      12.0107
     503     1 C    6  -13.185665   31.418220   20.424998      4.00      12.0107
     504     1 C    6  -15.655330   31.418183   20.424951      4.00      12.0107
     505     1 C    6  -18.124970   29.992272   20.424991      4.00      12.0107
     506     1 C    6  -18.124974   31.418137   20.424958      4.00      12.0107
     507     1 C    6  -16.890155   32.131096   20.425008      4.00      12.0107
     508     1 C    6  -14.420526   32.131123   20.425076      4.00      12.0107
     509     1 C    6  -11.950881   32.131164   20.424912      4.00      12.0107
     510     1 C    6   -9.481200   32.131241   20.424825      4.00      12.0107
     511     1 C    6   20.155081   32.131046   20.424795      4.00      12.0107
     512     1 C    6   37.443425   -0.663506   20.425014      4.00      12.0107




 SCF PARAMETERS         Density guess:                                   RESTART
                        --------------------------------------------------------
                        max_scf:                                             600
                        max_scf_history:                                       0
                        max_diis:                                              4
                        --------------------------------------------------------
                        eps_scf:                                        1.00E-06
                        eps_scf_history:                                0.00E+00
                        eps_diis:                                       1.00E-01
                        eps_eigval:                                     1.00E-05
                        --------------------------------------------------------
                        level_shift [a.u.]:                                 0.00
                        added MOs                                       500  500
                        --------------------------------------------------------
                        Mixing method:                            BROYDEN_MIXING
                                                charge density mixing in g-space
                        --------------------------------------------------------
                        Smear method:                                FERMI_DIRAC
                        Electronic temperature [K]:                        500.0
                        Electronic temperature [a.u.]:                  1.58E-03
                        Accuracy threshold:                             1.00E-10
                        --------------------------------------------------------
                        No outer SCF

 PW_GRID| Information for grid number                                          1
 PW_GRID| Grid distributed over                                   192 processors
 PW_GRID| Real space group dimensions                                   192    1
 PW_GRID| the grid is blocked:                                                NO
 PW_GRID| Cutoff [a.u.]                                                    250.0
 PW_GRID| spherical cutoff:                                                   NO
 PW_GRID|   Bounds   1           -270     269                Points:         540
 PW_GRID|   Bounds   2           -270     269                Points:         540
 PW_GRID|   Bounds   3           -480     479                Points:         960
 PW_GRID| Volume element (a.u.^3)  0.2282E-02     Volume (a.u.^3)    638765.8265
 PW_GRID| Grid span                                                    FULLSPACE
 PW_GRID|   Distribution                         Average         Max         Min
 PW_GRID|   G-Vectors                          1458000.0     1458000     1458000
 PW_GRID|   G-Rays                                2700.0        2700        2700
 PW_GRID|   Real Space Points                  1458000.0     1555200     1036800

 PW_GRID| Information for grid number                                          2
 PW_GRID| Grid distributed over                                   192 processors
 PW_GRID| Real space group dimensions                                   192    1
 PW_GRID| the grid is blocked:                                                NO
 PW_GRID| Cutoff [a.u.]                                                     83.3
 PW_GRID| spherical cutoff:                                                   NO
 PW_GRID|   Bounds   1           -160     159                Points:         320
 PW_GRID|   Bounds   2           -160     159                Points:         320
 PW_GRID|   Bounds   3           -288     287                Points:         576
 PW_GRID| Volume element (a.u.^3)  0.1083E-01     Volume (a.u.^3)    638765.8265
 PW_GRID| Grid span                                                    FULLSPACE
 PW_GRID|   Distribution                         Average         Max         Min
 PW_GRID|   G-Vectors                           307200.0      310080      304960
 PW_GRID|   G-Rays                                 960.0         969         953
 PW_GRID|   Real Space Points                   307200.0      368640      184320

 PW_GRID| Information for grid number                                          3
 PW_GRID| Grid distributed over                                   192 processors
 PW_GRID| Real space group dimensions                                    12   16
 PW_GRID| the grid is blocked:                                                NO
 PW_GRID| Cutoff [a.u.]                                                     27.8
 PW_GRID| spherical cutoff:                                                   NO
 PW_GRID|   Bounds   1            -90      89                Points:         180
 PW_GRID|   Bounds   2            -90      89                Points:         180
 PW_GRID|   Bounds   3           -160     159                Points:         320
 PW_GRID| Volume element (a.u.^3)  0.6161E-01     Volume (a.u.^3)    638765.8265
 PW_GRID| Grid span                                                    FULLSPACE
 PW_GRID|   Distribution                         Average         Max         Min
 PW_GRID|   G-Vectors                            54000.0       56160       51660
 PW_GRID|   G-Rays                                 300.0         312         287
 PW_GRID|   Real Space Points                    54000.0       57600       52800

 PW_GRID| Information for grid number                                          4
 PW_GRID| Grid distributed over                                   192 processors
 PW_GRID| Real space group dimensions                                    12   16
 PW_GRID| the grid is blocked:                                                NO
 PW_GRID| Cutoff [a.u.]                                                      9.3
 PW_GRID| spherical cutoff:                                                   NO
 PW_GRID|   Bounds   1            -54      53                Points:         108
 PW_GRID|   Bounds   2            -54      53                Points:         108
 PW_GRID|   Bounds   3            -96      95                Points:         192
 PW_GRID| Volume element (a.u.^3)  0.2852         Volume (a.u.^3)    638765.8265
 PW_GRID| Grid span                                                    FULLSPACE
 PW_GRID|   Distribution                         Average         Max         Min
 PW_GRID|   G-Vectors                            11664.0       12528       10692
 PW_GRID|   G-Rays                                 108.0         116          99
 PW_GRID|   Real Space Points                    11664.0       12096       10368

 PW_GRID| Information for grid number                                          5
 PW_GRID| Grid distributed over                                   192 processors
 PW_GRID| Real space group dimensions                                    12   16
 PW_GRID| the grid is blocked:                                                NO
 PW_GRID| Cutoff [a.u.]                                                      3.1
 PW_GRID| spherical cutoff:                                                   NO
 PW_GRID|   Bounds   1            -30      29                Points:          60
 PW_GRID|   Bounds   2            -30      29                Points:          60
 PW_GRID|   Bounds   3            -54      53                Points:         108
 PW_GRID| Volume element (a.u.^3)   1.643         Volume (a.u.^3)    638765.8265
 PW_GRID| Grid span                                                    FULLSPACE
 PW_GRID|   Distribution                         Average         Max         Min
 PW_GRID|   G-Vectors                             2025.0        2520        1500
 PW_GRID|   G-Rays                                  33.8          42          25
 PW_GRID|   Real Space Points                     2025.0        2160        1620

 POISSON| Solver                                                        PERIODIC
 POISSON| Periodicity                                                        XYZ

 RS_GRID| Information for grid number                                          1
 RS_GRID|   Bounds   1           -270     269                Points:         540
 RS_GRID|   Bounds   2           -270     269                Points:         540
 RS_GRID|   Bounds   3           -480     479                Points:         960
 RS_GRID| Real space distribution over                                  4 groups
 RS_GRID| Real space distribution along direction                              1
 RS_GRID| Border size                                                         32
 RS_GRID| Real space distribution over                                  6 groups
 RS_GRID| Real space distribution along direction                              2
 RS_GRID| Border size                                                         32
 RS_GRID| Real space distribution over                                  8 groups
 RS_GRID| Real space distribution along direction                              3
 RS_GRID| Border size                                                         32
 RS_GRID|   Distribution                         Average         Max         Min
 RS_GRID|   Planes                                 199.0         199         199
 RS_GRID|   Distribution                         Average         Max         Min
 RS_GRID|   Planes                                 154.0         154         154
 RS_GRID|   Distribution                         Average         Max         Min
 RS_GRID|   Planes                                 184.0         184         184

 RS_GRID| Information for grid number                                          2
 RS_GRID|   Bounds   1           -160     159                Points:         320
 RS_GRID|   Bounds   2           -160     159                Points:         320
 RS_GRID|   Bounds   3           -288     287                Points:         576
 RS_GRID| Real space distribution over                                  4 groups
 RS_GRID| Real space distribution along direction                              1
 RS_GRID| Border size                                                         38
 RS_GRID| Real space distribution over                                  6 groups
 RS_GRID| Real space distribution along direction                              2
 RS_GRID| Border size                                                         38
 RS_GRID| Real space distribution over                                  8 groups
 RS_GRID| Real space distribution along direction                              3
 RS_GRID| Border size                                                         38
 RS_GRID|   Distribution                         Average         Max         Min
 RS_GRID|   Planes                                 156.0         156         156
 RS_GRID|   Distribution                         Average         Max         Min
 RS_GRID|   Planes                                 129.3         130         129
 RS_GRID|   Distribution                         Average         Max         Min
 RS_GRID|   Planes                                 148.0         148         148

 RS_GRID| Information for grid number                                          3
 RS_GRID|   Bounds   1            -90      89                Points:         180
 RS_GRID|   Bounds   2            -90      89                Points:         180
 RS_GRID|   Bounds   3           -160     159                Points:         320
 RS_GRID| Real space fully replicated
 RS_GRID| Group size                                                           1

 RS_GRID| Information for grid number                                          4
 RS_GRID|   Bounds   1            -54      53                Points:         108
 RS_GRID|   Bounds   2            -54      53                Points:         108
 RS_GRID|   Bounds   3            -96      95                Points:         192
 RS_GRID| Real space fully replicated
 RS_GRID| Group size                                                           1

 RS_GRID| Information for grid number                                          5
 RS_GRID|   Bounds   1            -30      29                Points:          60
 RS_GRID|   Bounds   2            -30      29                Points:          60
 RS_GRID|   Bounds   3            -54      53                Points:         108
 RS_GRID| Real space fully replicated
 RS_GRID| Group size                                                           1

 Spin 1

 Number of electrons:                                                       1024
 Number of occupied orbitals:                                               1024
 Number of molecular orbitals:                                              1524

 Spin 2

 Number of electrons:                                                       1024
 Number of occupied orbitals:                                               1024
 Number of molecular orbitals:                                              1524

 Number of orbital functions:                                               6656
 Number of independent orbital functions:                                   6656

 Extrapolation method: initial_guess


 SCF WAVEFUNCTION OPTIMIZATION

  Step     Update method      Time    Convergence         Total energy    Change
  ------------------------------------------------------------------------------
     1 NoMix/Diag. 0.50E+00   36.5     0.00000322     -2913.1882487506 -2.91E+03
     2 Broy./Diag. 0.50E+00   45.8     0.00000044     -2913.1883077175 -5.90E-05

  *** SCF run converged in     2 steps ***


  Electronic density on regular grids:      -2047.9999999190        0.0000000810
  Core density on regular grids:             2047.9999998273       -0.0000001727
  Total charge density on r-space grids:       -0.0000000917
  Total charge density g-space grids:          -0.0000000917

  Overlap energy of the core charge distribution:               0.00008260857938
  Self energy of the core charge distribution:              -6827.52405850378818
  Core Hamiltonian energy:                                   2138.42177999894784
  Hartree energy:                                            2667.82467239601874
  Exchange-correlation energy:                               -897.11059432768639
  Dispersion energy:                                            5.19981048919688
  Electronic entropic energy:                                  -0.00000037874310
  Fermi energy:                                                -0.14608634979029

  Total energy:                                             -2913.18830771747525

   Calculate PDOS at iteration step                                  0
  Reached convergence in          151  iterations 

   Compute          512    additional unoccupied KS orbitals

              ---- PDOS: start iteration on the KS states --- 

   Calculate PDOS at iteration step                                  0
  Reached convergence in          151  iterations 

   Compute          512    additional unoccupied KS orbitals

              ---- PDOS: start iteration on the KS states --- 

  Integrated absolute spin density  :                               0.0000000000
  WARNING: S**2 computation does not yet treat fractional occupied orbitals

 !-----------------------------------------------------------------------------!
                     Mulliken Population Analysis

 #  Atom  Element  Kind  Atomic population (alpha,beta) Net charge  Spin moment
       1     C        1         2.000000     2.000000    -0.000001    -0.000000
       2     C        1         2.000000     2.000000    -0.000000    -0.000000
       3     C        1         1.999999     1.999999     0.000001     0.000000
       4     C        1         1.999999     1.999999     0.000001    -0.000000
[...]
 -                                                                             -
 -                                DBCSR STATISTICS                             -
 -                                                                             -
 -------------------------------------------------------------------------------
 COUNTER                                    TOTAL       BLAS       SMM       ACC
 flops   180 x    32 x    52             76677120       0.0%    100.0%      0.0%
 flops   180 x    52 x   286            342650880     100.0%      0.0%      0.0%
 flops   845 x    32 x    52            359956480       0.0%    100.0%      0.0%
 flops   858 x    32 x    52            365494272       0.0%    100.0%      0.0%
 flops   192 x    32 x    52            572522496       0.0%    100.0%      0.0%
 flops   180 x    52 x   273            654151680     100.0%      0.0%      0.0%
 flops   244 x    84 x   286            750317568     100.0%      0.0%      0.0%
 flops   819 x    32 x    52           1046642688       0.0%    100.0%      0.0%
 flops   832 x    32 x    52           1063256064       0.0%    100.0%      0.0%
 flops   244 x    84 x   273           1432424448     100.0%      0.0%      0.0%
 flops   180 x    32 x    64           2170552320       0.0%    100.0%      0.0%
 flops   192 x    52 x   286           2558459904     100.0%      0.0%      0.0%
 flops   244 x    32 x    84           3190161408       0.0%    100.0%      0.0%
 flops   180 x    32 x   286           3373793280       0.0%    100.0%      0.0%
 flops    13 x    32 x    32           3489660928       0.0%    100.0%      0.0%
 flops   244 x    64 x   286           4573364224     100.0%      0.0%      0.0%
 flops   192 x    52 x   273           4884332544     100.0%      0.0%      0.0%
 flops    13 x    20 x    13           4914790400       0.0%    100.0%      0.0%
 flops    13 x    13 x    52           5147377664       0.0%    100.0%      0.0%
 flops   256 x    84 x   286           5510529024     100.0%      0.0%      0.0%
 flops   180 x    32 x   273           6440878080       0.0%    100.0%      0.0%
 flops   244 x    64 x   273           8730968064     100.0%      0.0%      0.0%
 flops   180 x    64 x   286           9699655680     100.0%      0.0%      0.0%
 flops   256 x    84 x   273          10520100864     100.0%      0.0%      0.0%
 flops   845 x    32 x    84          11047895040     100.0%      0.0%      0.0%
 flops   858 x    32 x    84          11217862656     100.0%      0.0%      0.0%
 flops   244 x    96 x   286          12862586880     100.0%      0.0%      0.0%
 flops   192 x    32 x    64          16206790656       0.0%    100.0%      0.0%
 flops   180 x    64 x   273          18517524480     100.0%      0.0%      0.0%
 flops   244 x    32 x    64          19444793344       0.0%    100.0%      0.0%
 flops   256 x    32 x    84          23429382144       0.0%    100.0%      0.0%
 flops   244 x    96 x   273          24555847680     100.0%      0.0%      0.0%
 flops   192 x    32 x   286          25190989824       0.0%    100.0%      0.0%
 flops   819 x    32 x    84          32123879424     100.0%      0.0%      0.0%
 flops   832 x    32 x    84          32633782272     100.0%      0.0%      0.0%
 flops   256 x    64 x   286          33587986432     100.0%      0.0%      0.0%
 flops   192 x    32 x   273          48091889664       0.0%    100.0%      0.0%
 flops   244 x    32 x    96          54688481280       0.0%    100.0%      0.0%
 flops   256 x    64 x   273          64122519552     100.0%      0.0%      0.0%
 flops   192 x    64 x   286          72424095744     100.0%      0.0%      0.0%
 flops   845 x    32 x    64          77529088000       0.0%    100.0%      0.0%
 flops   858 x    32 x    64          78721843200       0.0%    100.0%      0.0%
 flops   244 x    32 x   286          86893920256     100.0%      0.0%      0.0%
 flops   256 x    96 x   286          94466211840     100.0%      0.0%      0.0%
 flops   192 x    64 x   273         138264182784     100.0%      0.0%      0.0%
 flops   256 x    32 x    64         142807662592       0.0%    100.0%      0.0%
 flops    13 x    13 x    64         145710383104       0.0%    100.0%      0.0%
 flops   244 x    32 x   273         165888393216     100.0%      0.0%      0.0%
 flops   256 x    96 x   273         180344586240     100.0%      0.0%      0.0%
 flops   845 x    32 x    96         189392486400     100.0%      0.0%      0.0%
 flops   858 x    32 x    96         192306216960     100.0%      0.0%      0.0%
 flops   819 x    32 x    64         225430732800       0.0%    100.0%      0.0%
 flops   832 x    32 x    64         229008998400       0.0%    100.0%      0.0%
 flops    64 x    32 x    32         390842023936       0.0%    100.0%      0.0%
 flops   845 x    32 x    32         395176837120       0.0%    100.0%      0.0%
 flops   858 x    32 x    32         401256480768       0.0%    100.0%      0.0%
 flops   256 x    32 x    96         401646551040       0.0%    100.0%      0.0%
 flops   819 x    32 x    96         550695075840     100.0%      0.0%      0.0%
 flops   832 x    32 x    96         559436267520     100.0%      0.0%      0.0%
 flops   256 x    32 x   286         638171742208     100.0%      0.0%      0.0%
 flops    64 x    32 x   286         707746856960       0.0%    100.0%      0.0%
 flops   819 x    32 x    32        1149052649472       0.0%    100.0%      0.0%
 flops   832 x    32 x    32        1167291580416       0.0%    100.0%      0.0%
 flops   256 x    32 x   273        1218327871488     100.0%      0.0%      0.0%
 flops    64 x    32 x   273        1351153090560       0.0%    100.0%      0.0%
 flops    13 x    32 x    13        8094856380416       0.0%    100.0%      0.0%
 flops inhomo. stacks                           0       0.0%      0.0%      0.0%
 flops total                        19.554433E+12      22.4%     77.6%      0.0%
 flops max/rank                    153.413037E+09      21.7%     78.3%      0.0%
 matmuls inhomo. stacks                         0       0.0%      0.0%      0.0%
 matmuls total                          764471296       0.1%     99.9%      0.0%
 number of processed stacks              10142592       8.4%     91.6%      0.0%
 average stack size                                     1.0      82.2       0.0
 marketing flops                    41.350154E+12
 -------------------------------------------------------------------------------
 # multiplications                           4098
 max memory usage/rank               2.351387E+09
 # max total images/rank                        3
 # max 3D layers                                1
 # MPI messages exchanged                72387072
 MPI messages size (bytes):
  total size                         4.474136E+12
  min size                           0.000000E+00
  max size                         658.944000E+03
  average size                      61.808500E+03
 MPI breakdown and total messages size (bytes):
             size <=      128            28683392                        0
       128 < size <=     8192            13833856             113326948352
      8192 < size <=    32768             7112704             130836070400
     32768 < size <=   131072            12320272             889523452928
    131072 < size <=  4194304            10436848            3341358298112
   4194304 < size <= 16777216                   0                        0
  16777216 < size                               0                        0
 -------------------------------------------------------------------------------

 *** WARNING in dbcsr/mm/dbcsr_mm.F:268 :: Using a non-square number of ***
 *** MPI ranks might lead to poor performance.                          ***
 *** Used ranks: 192                                                    ***
 *** Suggested: 196 400                                                 ***

 -------------------------------------------------------------------------------
 
 MEMORY| Estimated peak process memory [MiB]                                2516

 -------------------------------------------------------------------------------
 ----                             MULTIGRID INFO                            ----
 -------------------------------------------------------------------------------
 count for grid        1:         292928          cutoff [a.u.]          250.00
 count for grid        2:         297600          cutoff [a.u.]           83.33
 count for grid        3:         223552          cutoff [a.u.]           27.78
 count for grid        4:          65408          cutoff [a.u.]            9.26
 count for grid        5:              0          cutoff [a.u.]            3.09
 total gridlevel count  :         879488

 -------------------------------------------------------------------------------
 -                                                                             -
 -                         MESSAGE PASSING PERFORMANCE                         -
 -                                                                             -
 -------------------------------------------------------------------------------

 ROUTINE             CALLS      AVE VOLUME [Bytes]
 MP_Group              359
 MP_Bcast            19597                  14412.
 MP_Allreduce        66490                   3546.
 MP_Sync               275
 MP_Alltoall         16470                1565199.
 MP_ISendRecv        10314                 191616.
 MP_Wait            865076
 MP_comm_split         270
 MP_ISend           779966                  35882.
 MP_IRecv           780074                  35509.
 MP_Recv                94                1703936.
 MP_Memory          307516
 -------------------------------------------------------------------------------


 -------------------------------------------------------------------------------
 -                                                                             -
 -                           R E F E R E N C E S                               -
 -                                                                             -
 -------------------------------------------------------------------------------
 
 CP2K version 6.1, the CP2K developers group (2018).
 CP2K is freely available from https://www.cp2k.org/ .

 Schuett, Ole; Messmer, Peter; Hutter, Juerg; VandeVondele, Joost. 
 Electronic Structure Calculations on Graphics Processing Units, John Wiley & Sons, Ltd, 173-190 (2016). 
 GPU-Accelerated Sparse Matrix-Matrix Multiplication for Linear Scaling Density Functional Theory.
 http://dx.doi.org/10.1002/9781118670712.ch8


 Borstnik, U; VandeVondele, J; Weber, V; Hutter, J. 
 PARALLEL COMPUTING, 40 (5-6), 47-58 (2014). 
 Sparse matrix multiplication: The distributed block-compressed sparse
 row library.
 http://dx.doi.org/10.1016/j.parco.2014.03.012


 Hutter, J; Iannuzzi, M; Schiffmann, F; VandeVondele, J. 
 WILEY INTERDISCIPLINARY REVIEWS-COMPUTATIONAL MOLECULAR SCIENCE, 4 (1), 15-25 (2014). 
 CP2K: atomistic simulations of condensed matter systems.
 http://dx.doi.org/10.1002/wcms.1159


 Sabatini, R; Gorni, T; de Gironcoli, S. 
 Phys. Rev. B, 87 (4), 041108(R) (2013). 
 Nonlocal van der Waals density functional made simple and efficient.
 http://dx.doi.org/10.1103/PhysRevB.87.041108


 Roman-Perez, G; Soler, JM. 
 Phys. Rev. Lett., 103 (9), 096102 (2009). 
 Efficient Implementation of a van der Waals Density Functional:
 Application to Double-Wall Carbon Nanotubes.
 http://dx.doi.org/10.1103/PhysRevLett.103.096102


 VandeVondele, J; Hutter, J. 
 JOURNAL OF CHEMICAL PHYSICS, 127 (11), 114105 (2007). 
 Gaussian basis sets for accurate calculations on molecular systems in
 gas and condensed phases.
 http://dx.doi.org/10.1063/1.2770708


 Krack, M. 
 THEORETICAL CHEMISTRY ACCOUNTS, 114 (1-3), 145-152 (2005). 
 Pseudopotentials for H to Kr optimized for gradient-corrected
 exchange-correlation functionals.
 http://dx.doi.org/10.1007/s00214-005-0655-y


 VandeVondele, J; Krack, M; Mohamed, F; Parrinello, M; Chassaing, T;
 Hutter, J. COMPUTER PHYSICS COMMUNICATIONS, 167 (2), 103-128 (2005). 
 QUICKSTEP: Fast and accurate density functional calculations using a
 mixed Gaussian and plane waves approach.
 http://dx.doi.org/10.1016/j.cpc.2004.12.014


 Frigo, M; Johnson, SG. 
 PROCEEDINGS OF THE IEEE, 93 (2), 216-231 (2005). 
 The design and implementation of FFTW3.
 http://dx.doi.org/10.1109/JPROC.2004.840301


 VandeVondele, J; Hutter, J. 
 JOURNAL OF CHEMICAL PHYSICS, 118 (10), 4365-4369 (2003). 
 An efficient orbital transformation method for electronic structure
 calculations.
 http://dx.doi.org/10.1063/1.1543154


 Hartwigsen, C; Goedecker, S; Hutter, J. 
 PHYSICAL REVIEW B, 58 (7), 3641-3662 (1998). 
 Relativistic separable dual-space Gaussian pseudopotentials from H to Rn.
 http://dx.doi.org/10.1103/PhysRevB.58.3641


 Zhang, YK; Yang, WT. 
 PHYSICAL REVIEW LETTERS, 80 (4), 890-890 (1998). 
 Comment on Generalized gradient approximation made simple.
 http://dx.doi.org/10.1103/PhysRevLett.80.890


 Lippert, G; Hutter, J; Parrinello, M. 
 MOLECULAR PHYSICS, 92 (3), 477-487 (1997). 
 A hybrid Gaussian and plane wave density functional scheme.
 http://dx.doi.org/10.1080/002689797170220


 Perdew, JP; Burke, K; Ernzerhof, M. 
 PHYSICAL REVIEW LETTERS, 77 (18), 3865-3868 (1996). 
 Generalized gradient approximation made simple.
 http://dx.doi.org/10.1103/PhysRevLett.77.3865


 Goedecker, S; Teter, M; Hutter, J. 
 PHYSICAL REVIEW B, 54 (3), 1703-1710 (1996). 
 Separable dual-space Gaussian pseudopotentials.
 http://dx.doi.org/10.1103/PhysRevB.54.1703


 -------------------------------------------------------------------------------
 -                                                                             -
 -                                T I M I N G                                  -
 -                                                                             -
 -------------------------------------------------------------------------------
 SUBROUTINE                       CALLS  ASD         SELF TIME        TOTAL TIME
                                MAXIMUM       AVERAGE  MAXIMUM  AVERAGE  MAXIMUM
 CP2K                                 1  1.0    0.147    0.256  205.943  206.291
 qs_forces                            1  2.0    0.001    0.002  202.223  202.565
 qs_energies                          1  3.0    0.000    0.004  158.273  158.541
 rebuild_ks_matrix                    3  6.0    0.000    0.000  104.849  105.025
 qs_ks_build_kohn_sham_matrix         3  7.0    0.005    0.012  104.849  105.025
 qs_vxc_create                        3  8.0    0.003    0.006   92.994   93.154
 scf_env_do_scf                       1  4.0    0.000    0.003   90.184   90.364
 scf_env_do_scf_inner_loop            2  5.0    0.001    0.002   90.180   90.360
 calculate_dispersion_nonloc          3  9.0    3.286    4.026   77.713   77.873
 pw_transfer                        351  9.9    0.047    0.057   74.076   76.689
 fft_wrap_pw1pw2                    318 10.9    0.005    0.007   73.547   76.277
 fft_wrap_pw1pw2_250                246 11.9    5.384    6.101   70.960   73.638
 fft3d_ps                           318 12.9   26.743   28.079   58.996   63.394
 qs_ks_update_qs_env                  2  6.0    0.000    0.000   61.030   61.133
 scf_post_calculation_gpw             1  4.0    0.000    0.001   55.988   56.094
 write_available_results              1  5.0    0.003    0.005   55.988   56.093
 write_mo_dependent_results           1  6.0    0.019    0.021   55.210   55.314
 calculate_projected_dos              2  7.0    0.632    0.768   55.166   55.270
 ot_eigensolver                       2  8.0    0.007    0.015   48.127   48.217
 qs_ks_update_qs_env_forces           1  3.0    0.000    0.000   43.822   43.896
 mp_alltoall_z22v                   318 14.9   25.062   34.665   25.062   34.665
 dbcsr_multiply_generic            4098 10.8    0.270    0.285   30.990   31.376
 cp_fm_syevd                        270 11.9    0.002    0.003   26.581   26.676
 cp_fm_redistribute_end             270 12.9   16.421   25.617   16.522   25.656
 cp_fm_syevd_base                   270 12.3    9.055   24.629    9.055   24.629
 qs_rho_update_rho                    3  6.0    0.000    0.001   24.549   24.591
 calculate_rho_elec                  12  7.0    3.721    9.732   24.548   24.590
 vdW_energy                           3 10.0   19.140   21.868   19.140   21.868
 multiply_cannon                   4098 11.8    1.242    1.341   20.263   21.609
 density_rs2pw                       12  8.0    0.001    0.001   19.412   21.378
 qs_ot_get_p                        310  9.0    0.008    0.042   20.166   20.522
 yz_to_x                            121 13.8    2.454    2.790   14.925   20.409
 x_to_yz                            143 14.0    4.339    4.906   16.873   19.020
 mp_waitall_1                    862862 13.9   11.922   17.938   11.922   17.938
 rs_pw_transfer                      95  9.6    0.001    0.002   13.824   15.744
 xc_vxc_pw_create                     3  9.0    0.781    0.961   15.278   15.413
 qs_ot_p2m_diag                     260 10.0    0.036    0.065   15.179   15.257
 multiply_cannon_metrocomm3       98352 12.8    0.263    0.285    5.284   15.025
 ot_mini                            302  9.0    0.001    0.002   13.387   13.433
 qs_ot_get_derivative               152 10.0    0.001    0.002   12.994   13.130
 cp_dbcsr_syevd                     260 11.0    0.015    0.018   12.978   13.014
 qs_scf_new_mos                       2  6.0    0.001    0.007   12.118   12.139
 eigensolver                          4  7.0    0.000    0.001   11.925   11.944
 init_scf_run                         1  4.0    0.000    0.001   11.134   11.155
 scf_env_initial_rho_setup            1  5.0    0.000    0.001   10.718   10.736
 mp_waitany                        2214 11.4    7.622   10.061    7.622   10.061
 rs_pw_transfer_RS2PW_250            14  9.8    1.139    1.788    6.648   10.031
 sum_up_and_integrate                 3  8.0    0.111    0.144    9.791    9.896
 integrate_v_rspace                   6  9.0    1.894    4.705    9.681    9.824
 multiply_cannon_multrec          98352 12.8    4.507    7.333    4.639    7.353
 xc_rho_set_and_dset_create           3 10.0    0.163    0.199    6.680    6.856
 make_m2s                          8196 11.8    0.262    0.279    6.554    6.800
 multiply_cannon_metrocomm1       98352 12.8    0.276    0.307    4.129    6.660
 rs_pw_transfer_RS2PW_90             12 10.0    0.705    0.851    2.505    6.443
 qs_ot_get_derivative_diag          124 11.0    0.005    0.017    5.968    6.014
 mp_sum_d                         10125 12.3    4.393    5.964    4.393    5.964
 make_images                       8196 12.8    0.340    0.383    5.655    5.946
 pw_scatter_p                       161 13.1    5.128    5.930    5.128    5.930
 cp_fm_power                          4  8.0    0.050    0.101    5.736    5.751
 potential_pw2rs                      6 10.0    0.006    0.007    4.930    5.069
 mp_alltoall_d11v                  3693 13.8    3.348    4.327    3.348    4.327
 pw_gather_p                        157 12.6    3.940    4.277    3.940    4.277
 mp_sum_l                         19273 11.9    2.849    4.152    2.849    4.152
 -------------------------------------------------------------------------------

 The number of warnings for this run is : 2
 
 -------------------------------------------------------------------------------
  **** **** ******  **  PROGRAM ENDED AT                 2020-11-05 17:42:02.352
 ***** ** ***  *** **   PROGRAM RAN ON               cresco6x326.portici.enea.it
 **    ****   ******    PROGRAM RAN BY                                    ftotti
 ***** **    ** ** **   PROGRAM PROCESS ID                               2951668
  **** **  *******  **  PROGRAM STOPPED IN /gporq2/scratch_0/usr/ftotti/Andrea/G
                                           RAFENE/GRAFENE-15x15-alone-smear
