  MPI-parallelism will be employed.
------------------------------------------------------------
          Invoking FHI-aims ...
          Version 071914_7
          Compiled on 2018/04/19 at 21:25:48 on host cobra02.

          When using FHI-aims, please cite the following reference:

          Volker Blum, Ralf Gehrke, Felix Hanke, Paula Havu,
          Ville Havu, Xinguo Ren, Karsten Reuter, and Matthias Scheffler,
          'Ab Initio Molecular Simulations with Numeric Atom-Centered Orbitals: FHI-aims',
          Computer Physics Communications 180, 2175-2196 (2009)

          For any questions about FHI-aims, please visit the aimsclub website
          with its forums and wiki. Contributions to both the forums and the
          wiki are warmly encouraged - they are for you, and everyone is welcome there.

------------------------------------------------------------

  Date     :  20200522, Time     :  051536.308
  Time zero on CPU 1             :   0.178232000000000E+00  s.
  Internal wall clock time zero  :           359356536.308  s.

  Using       80 parallel tasks.
  Task        0 on host co6606 reporting.
  Task        1 on host co6606 reporting.
  Task        2 on host co6606 reporting.
  Task        3 on host co6606 reporting.
  Task        4 on host co6606 reporting.
  Task        5 on host co6606 reporting.
  Task        6 on host co6606 reporting.
  Task        7 on host co6606 reporting.
  Task        8 on host co6606 reporting.
  Task        9 on host co6606 reporting.
  Task       10 on host co6606 reporting.
  Task       11 on host co6606 reporting.
  Task       12 on host co6606 reporting.
  Task       13 on host co6606 reporting.
  Task       14 on host co6606 reporting.
  Task       15 on host co6606 reporting.
  Task       16 on host co6606 reporting.
  Task       17 on host co6606 reporting.
  Task       18 on host co6606 reporting.
  Task       19 on host co6606 reporting.
  Task       20 on host co6606 reporting.
  Task       21 on host co6606 reporting.
  Task       22 on host co6606 reporting.
  Task       23 on host co6606 reporting.
  Task       24 on host co6606 reporting.
  Task       25 on host co6606 reporting.
  Task       26 on host co6606 reporting.
  Task       27 on host co6606 reporting.
  Task       28 on host co6606 reporting.
  Task       29 on host co6606 reporting.
  Task       30 on host co6606 reporting.
  Task       31 on host co6606 reporting.
  Task       32 on host co6606 reporting.
  Task       33 on host co6606 reporting.
  Task       34 on host co6606 reporting.
  Task       35 on host co6606 reporting.
  Task       36 on host co6606 reporting.
  Task       37 on host co6606 reporting.
  Task       38 on host co6606 reporting.
  Task       39 on host co6606 reporting.
  Task       40 on host co6608 reporting.
  Task       41 on host co6608 reporting.
  Task       42 on host co6608 reporting.
  Task       43 on host co6608 reporting.
  Task       44 on host co6608 reporting.
  Task       45 on host co6608 reporting.
  Task       46 on host co6608 reporting.
  Task       47 on host co6608 reporting.
  Task       48 on host co6608 reporting.
  Task       49 on host co6608 reporting.
  Task       50 on host co6608 reporting.
  Task       51 on host co6608 reporting.
  Task       52 on host co6608 reporting.
  Task       53 on host co6608 reporting.
  Task       54 on host co6608 reporting.
  Task       55 on host co6608 reporting.
  Task       56 on host co6608 reporting.
  Task       57 on host co6608 reporting.
  Task       58 on host co6608 reporting.
  Task       59 on host co6608 reporting.
  Task       60 on host co6608 reporting.
  Task       61 on host co6608 reporting.
  Task       62 on host co6608 reporting.
  Task       63 on host co6608 reporting.
  Task       64 on host co6608 reporting.
  Task       65 on host co6608 reporting.
  Task       66 on host co6608 reporting.
  Task       67 on host co6608 reporting.
  Task       68 on host co6608 reporting.
  Task       69 on host co6608 reporting.
  Task       70 on host co6608 reporting.
  Task       71 on host co6608 reporting.
  Task       72 on host co6608 reporting.
  Task       73 on host co6608 reporting.
  Task       74 on host co6608 reporting.
  Task       75 on host co6608 reporting.
  Task       76 on host co6608 reporting.
  Task       77 on host co6608 reporting.
  Task       78 on host co6608 reporting.
  Task       79 on host co6608 reporting.

  Performing system and environment tests:
  | Environment variable OMP_NUM_THREADS correctly set to 1.
  | Stacksize not measured: no C compiler
  | Checking for scalapack...
  | Testing pdtran()...
  | All pdtran() tests passed.

  Obtaining array dimensions for all initial allocations:
  
  -----------------------------------------------------------------------
  Parsing control.in (first pass over file, find array dimensions only).
  The contents of control.in will be repeated verbatim below
  unless switched off by setting 'verbatim_writeout .false.' .
  in the first line of control.in .
  -----------------------------------------------------------------------
  
  basis_threshold 1E-7
  #=====================================================
  #FHI-aims file: /mnt/lxfs2/scratch/bieniek/binaries/monomers_unrelaxed/pbe/really_tight/minimal/atomic_zora/8/14_Si/control.in
  #Created using the Atomic Simulation Environment (ASE)
  #
  #List of parameters used to initialize the calculator:
  #=====================================================
  charge_mix_param                   0.05
  sc_iter_limit                      800
  relativistic                       atomic_zora scalar
  compute_analytical_stress          .true.
  sc_accuracy_rho                    1e-05
  charge                             0.0
  dos_kgrid_factors                  3 3 3
  xc                                 pbe
  override_relativity                .true.
  k_grid                             10 10 10
  preconditioner                     kerker 1.5
  n_max_pulay                        10
  occupation_type                    fermi 0.1
  spin                               none
  compute_forces                     .true.
  override_illconditioning           .true.
  mixer                              pulay
  sc_accuracy_etot                   1e-05
  sc_accuracy_eev                    1e-05
  sc_accuracy_forces                 0.0001
  output                             atom_proj_dos -20 10 1000 0.01
  output                             dos -20 10 1000 0.01
  output                             quadrupole
  output                             hirshfeld
  output                             band 0.0 0.0 0.0 0.5 0.0 0.5 20 \Gamma X
  output                             band 0.5 0.0 0.5 0.5 0.25 0.75 20 X W
  output                             band 0.5 0.25 0.75 0.375 0.375 0.75 20 W K
  output                             band 0.375 0.375 0.75 0.0 0.0 0.0 20 K \Gamma
  output                             band 0.0 0.0 0.0 0.5 0.5 0.5 20 \Gamma L
  output                             band 0.5 0.5 0.5 0.625 0.25 0.625 20 L U
  output                             band 0.625 0.25 0.625 0.5 0.25 0.75 20 U W
  output                             band 0.5 0.25 0.75 0.5 0.5 0.5 20 W L
  output                             band 0.5 0.5 0.5 0.375 0.375 0.75 20 L K
  output                             band 0.625 0.25 0.625 0.5 0.0 0.5 20 U X
  #=======================================================
  
  ################################################################################
  #
  #  FHI-aims code project
  #  VB, Fritz-Haber Institut, 2007
  #
  #  Suggested "safe" defaults for Si atom (to be pasted into control.in file)
  #
  ################################################################################
    species        Si
  #     global species definitions
      nucleus             14
      mass                28.0855
  #
      l_hartree           8
  #
      cut_pot             4.0          2.0  1.0
      basis_dep_cutoff    0.d0
  #
      radial_base         42 7.0
      radial_multiplier   2
      angular_grids       specified
        division   0.5546  110
        division   0.6662  194
        division   0.7933  302
        division   0.9076  434
        division   1.0349  590
  #      division   1.1770  770
  #      division   2.4695  974
  #      outer_grid   974
        outer_grid 590
  ################################################################################
  #
  #  Definition of "minimal" basis
  #
  ################################################################################
  #     valence basis states
      valence      3  s   2.
      valence      3  p   2.
  #     ion occupancy
      ion_occ      3  s   1.
      ion_occ      3  p   1.
  ################################################################################
  #
  #  Suggested additional basis functions. For production calculations,
  #  uncomment them one after another (the most important basis functions are
  #  listed first).
  #
  #  Constructed for dimers: 1.75 A, 2.0 A, 2.25 A, 2.75 A, 3.75 A
  #
  ################################################################################
  #  "First tier" - improvements: -571.96 meV to -37.03 meV
  #     hydro 3 d 4.2
  #     hydro 2 p 1.4
  #     hydro 4 f 6.2
  #     ionic 3 s auto
  #  "Second tier" - improvements: -16.76 meV to -3.03 meV
  #     hydro 3 d 9
  #     hydro 5 g 9.4
  #     hydro 4 p 4
  #     hydro 1 s 0.65
  #  "Third tier" - improvements: -3.89 meV to -0.60 meV
  #     ionic 3 d auto
  #     hydro 3 s 2.6
  #     hydro 4 f 8.4
  #     hydro 3 d 3.4
  #     hydro 3 p 7.8
  #  "Fourth tier" - improvements: -0.33 meV to -0.11 meV
  #     hydro 2 p 1.6
  #     hydro 5 g 10.8
  #     hydro 5 f 11.2
  #     hydro 3 d 1
  #     hydro 4 s 4.5
  #  Further basis functions that fell out of the optimization - noise
  #  level... < -0.08 meV
  #     hydro 4 d 6.6
  #     hydro 5 g 16.4
  #     hydro 4 d 9
         hydro 3 d 4.2
         hydro 2 p 1.4
         hydro 4 f 6.2
         ionic 3 s auto
         hydro 3 d 9
         hydro 5 g 9.4
         hydro 4 p 4
         hydro 1 s 0.65
         ionic 3 d auto
         hydro 3 s 2.6
  
  -----------------------------------------------------------------------
  Completed first pass over input file control.in .
  -----------------------------------------------------------------------
  
  
  -----------------------------------------------------------------------
  Parsing geometry.in (first pass over file, find array dimensions only).
  The contents of geometry.in will be repeated verbatim below
  unless switched off by setting 'verbatim_writeout .false.' .
  in the first line of geometry.in .
  -----------------------------------------------------------------------
  
  #=======================================================
  #FHI-aims file: /mnt/lxfs2/scratch/bieniek/binaries/monomers_unrelaxed/pbe/really_tight/minimal/atomic_zora/8/14_Si/geometry.in
  #Created using the Atomic Simulation Environment (ASE)
  #=======================================================
  lattice_vector 3.8670900000000001 0.0000000000000000 0.0000000000000000
  lattice_vector 1.9335450000000005 3.3489981787207648 0.0000000000000000
  lattice_vector 1.9335450000000005 1.1163327262402551 3.1574657631397995
  atom 0.0000000000000000 0.0000000000000000 0.0000000000000000 Si
  initial_moment         0.000000
  atom 1.9335450000000003 1.1163327262402549 0.7893664407849499 Si
  initial_moment         0.000000
  
  -----------------------------------------------------------------------
  Completed first pass over input file geometry.in .
  -----------------------------------------------------------------------
  

  Basic array size parameters:
  | Number of species                 :        1
  | Number of atoms                   :        2
  | Number of lattice vectors         :        3
  | Max. basis fn. angular momentum   :        4
  | Max. atomic/ionic basis occupied n:        3
  | Max. number of basis fn. types    :        3
  | Max. radial fns per species/type  :        8
  | Max. logarithmic grid size        :     1346
  | Max. radial integration grid size :       85
  | Max. angular integration grid size:      590
  | Max. angular grid division number :        8
  | Radial grid for Hartree potential :     1346
  | Number of spin channels           :        1

------------------------------------------------------------
          Reading file control.in.
------------------------------------------------------------
  Threshold for basis singularities: 0.1000E-06
  Charge density mixing - mixing parameter:     0.0500
  Maximum number of s.-c. iterations  :   800
  Scalar relativistic treatment of kinetic energy: on-site free-atom approximation to ZORA.
  Convergence accuracy of self-consistent charge density: 0.1000E-04
  Charge =   0.000000E+00: Neutral system requested explicitly.
  Found k-point grid multipliers for perturbative DOS :         3         3         3
  XC: Using PBE gradient-corrected functionals.
  override_relativity: Explicitly overriding any built-in relativity checks.
  If you use this flag, you should really know what you are doing.
  Found k-point grid:        10        10        10
  Using Kerker preconditioning with damping at q_0 =     0.1500E+01
  Pulay mixing - number of memorized iterations:   10
  Occupation type: Fermi broadening, width =   0.100000E+00 eV.
  Spin treatment: No spin polarisation.
  Forces will be computed.
  override_illconditioning: Explicitly overriding any built-in checks for an ill-conditioned overlap matrix.
  *** WARNING: If you use this flag, you should really know what you are doing.
  *** DO NOT keep this flag set by default in all your control.in files.
  Using pulay charge density mixing.
  Convergence accuracy of total energy: 0.1000E-04
  Convergence accuracy of sum of eigenvalues: 0.1000E-04
  Convergence accuracy of forces: 0.1000E-03
  Calculating atom-projected density of states with
  | energy interval :-20.000000 10.000000
  | points & broadening :  1000  0.010000
  Calculating density of states with
  | energy interval :-20.000000 10.000000
  | points & broadening :  1000  0.010000
  quadrupole moment will be written out.
  Hirshfeld charge analysis will be performed.

  Plot band    1
  | begin  0.000000  0.000000  0.000000
  | end    0.500000  0.000000  0.500000
  | number of points:   20

  Plot band    2
  | begin  0.500000  0.000000  0.500000
  | end    0.500000  0.250000  0.750000
  | number of points:   20

  Plot band    3
  | begin  0.500000  0.250000  0.750000
  | end    0.375000  0.375000  0.750000
  | number of points:   20

  Plot band    4
  | begin  0.375000  0.375000  0.750000
  | end    0.000000  0.000000  0.000000
  | number of points:   20

  Plot band    5
  | begin  0.000000  0.000000  0.000000
  | end    0.500000  0.500000  0.500000
  | number of points:   20

  Plot band    6
  | begin  0.500000  0.500000  0.500000
  | end    0.625000  0.250000  0.625000
  | number of points:   20

  Plot band    7
  | begin  0.625000  0.250000  0.625000
  | end    0.500000  0.250000  0.750000
  | number of points:   20

  Plot band    8
  | begin  0.500000  0.250000  0.750000
  | end    0.500000  0.500000  0.500000
  | number of points:   20

  Plot band    9
  | begin  0.500000  0.500000  0.500000
  | end    0.375000  0.375000  0.750000
  | number of points:   20

  Plot band   10
  | begin  0.625000  0.250000  0.625000
  | end    0.500000  0.000000  0.500000
  | number of points:   20
 
  Reading configuration options for species Si                  .
  | Found nuclear charge :  14.0000
  | Found atomic mass :    28.0855000000000      amu
  | Found l_max for Hartree potential  :   8
  | Found cutoff potl. onset [A], width [A], scale factor :    4.00000    2.00000    1.00000
  | Threshold for basis-dependent cutoff potential is   0.000000E+00
  | Found data for basic radial integration grid :    42 points, outermost radius =    7.000 A
  | Found multiplier for basic radial grid :   2
  | Found angular grid specification: user-specified.
  | Specified grid contains     6 separate shells.
  | Check grid settings after all constraints further below.
  | Found free-atom valence shell :  3 s   2.000
  | Found free-atom valence shell :  3 p   2.000
  | Found free-ion valence shell :  3 s   1.000
  | Found free-ion valence shell :  3 p   1.000
  | Found hydrogenic basis function :  3 d   4.200
  | Found hydrogenic basis function :  2 p   1.400
  | Found hydrogenic basis function :  4 f   6.200
  | Found ionic basis function :  3 s , default cutoff radius.
  | Found hydrogenic basis function :  3 d   9.000
  | Found hydrogenic basis function :  5 g   9.400
  | Found hydrogenic basis function :  4 p   4.000
  | Found hydrogenic basis function :  1 s   0.650
  | Found ionic basis function :  3 d , default cutoff radius.
  | Found hydrogenic basis function :  3 s   2.600
  Species Si                  : Missing cutoff potential type.
  Defaulting to exp(1/x)/(1-x)^2 type cutoff potential.
  Species Si: No 'logarithmic' tag. Using default grid for free atom:
  | Default logarithmic grid data [bohr] : 0.1000E-03 0.1000E+03 0.1012E+01
  | Will include ionic basis functions of  2.0-fold positive Si                   ion.
  Species Si: On-site basis accuracy parameter (for Gram-Schmidt orthonormalisation) not specified.
  Using default value basis_acc =  0.1000000E-03.
  Species Si                  : Using default innermost maximum threshold i_radial=  2 for radial functions.
  Species Si                  : Default cutoff onset for free atom density etc. : 0.40000000E+01 AA.
  Species Si                  : Basic radial grid will be enhanced according to radial_multiplier =   2, to contain    85 grid points.
 
  Finished reading input file 'control.in'. Consistency checks are next.
 
  Target number of points in a grid batch is not set. Defaulting to  100
  Method for grid partitioning is not set. Defaulting to parallel hash+maxmin partitioning.
  Batch size limit is not set. Defaulting to    200
  By default, will store active basis functions for each batch.
  If in need of memory, prune_basis_once .false. can be used to disable this option.
  communication_type for Hartree potential was not specified.
  Defaulting to calc_hartree .
  Pulay mixer: Number of initial linear mixing iterations not set.
  Defaulting to    0 iterations.
  Work space size for distributed Hartree potential not set.
  Defaulting to   0.200000E+03 MB.
  Algorithm-dependent basis array size parameters:
  | n_max_pulay                         :       10
  Geometry relaxation not requested: no relaxation will be performed.
  Analytical stress will be computed.
  Analytical stress calculation: Only the upper triangle is calculated.
                                 Final output is symmetrized.
  Analytical stress calculation: scf convergence accuracy of stress not set.
                                 Analytical stress self-consistency will not be checked explicitly.
                                 Be sure to set other criteria like sc_accuracy_eev tight enough.
  Handling of forces: Unphysical translation and rotation will be removed from forces.
  No accuracy limit for integral partition fn. given. Defaulting to 0.1000E-14.
  No threshold value for u(r) in integrations given. Defaulting to 0.1000E-05.
  No accuracy for occupation numbers given. Defaulting to 0.1000E-07.
  No threshold value for occupation numbers given. Defaulting to 0.0000E+00.
  No accuracy for fermi level given. Defaulting to 0.1000E-19.
  Maximum # of iterations to find E_F not set. Defaulting to  200.
  Preferred method for the eigenvalue solver ('KS_method') not specified in 'control.in'.
  Defaulting to serial version, 'lapack_fast', since more k-points than CPUs available.
  Will not use alltoall communication since running on < 1024 CPUs.
  partition_type (choice of integration weights) for integrals was not specified.
  | Using a version of the partition function of Stratmann and coworkers ('stratmann_smoother').
  | At each grid point, the set of atoms used to build the partition table is smoothly restricted to
  | only those atoms whose free-atom density would be non-zero at that grid point.
  Partitioning for Hartree potential was not defined. Using partition_type for integrals.
  | Adjusted default value of keyword multip_moments_threshold to:       0.10000000E-11
  | This value may affect high angular momentum components of the Hartree potential in periodic systems.
  Angular momentum expansion for Kerker preconditioner not set explicitly.
  | Using default value of   0
  No explicit requirement for turning off preconditioner.
  | By default, it will be turned off when the charge convergence reaches
  | sc_accuracy_rho  =   0.100000E-04
  | sc_accuracy_eev  =   0.100000E-04
  | sc_accuracy_etot =   0.100000E-04
  No special mixing parameter while Kerker preconditioner is on.
  Using default: charge_mix_param =     0.0500.
  No q(lm)/r^(l+1) cutoff set for long-range Hartree potential.
  | Using default value of  0.100000E-09 .
  | Verify using the multipole_threshold keyword.
  Defaulting to new monopole extrapolation.
  Density update method: automatic selection selected.
  Using density matrix based charge density update.
  Using density matrix based charge density update.
  Using packed matrix style: index .
  Defaulting to use time-reversal symmetry for k-point grid.
------------------------------------------------------------


------------------------------------------------------------
          Reading geometry description geometry.in.
------------------------------------------------------------
 * Initial moment specified in geometry.in, but spin-unpolarized calculation requested.
 * Ignoring initial moment.
 * Initial moment specified in geometry.in, but spin-unpolarized calculation requested.
 * Ignoring initial moment.
  Input structure read successfully.
  The structure contains        2 atoms,  and a total of         28.000 electrons.

  Input geometry:
  | Unit cell:
  |         3.867090         0.000000         0.000000
  |         1.933545         3.348998         0.000000
  |         1.933545         1.116333         3.157466
  | Atomic structure:
  |       Atom                x [A]            y [A]            z [A]
  |    1: Species Si             0.000000         0.000000         0.000000
  |    2: Species Si             1.933545         1.116333         0.789366
  |

  | The smallest distance between any two atoms is         2.36809932 AA.
  |
  | The first atom of this pair is atom number                      1 .
  | The second atom of this pair is atom number                     2 .
  | Wigner-Seitz cell of the first atom image           0     0     1 .
  | (The Wigner-Seitz cell of the second atom is 0 0 0  by definition.)

  Quantities derived from the lattice vectors:
  | Reciprocal lattice vector 1:  1.624784 -0.938069 -0.663315
  | Reciprocal lattice vector 2:  0.000000  1.876139 -0.663315
  | Reciprocal lattice vector 3: -0.000000  0.000000  1.989946
  | Unit cell volume                               :   0.408920E+02  A^3

  Number of empty states per atom not set in control.in - providing a guess from actual geometry.
  | Total number of empty states used during s.c.f. cycle:        6
  If you use a very high smearing, use empty_states (per atom!) in control.in to increase this value.

  Structure-dependent array size parameters: 
  | Maximum number of distinct radial functions  :       15
  | Maximum number of basis functions            :       98
  | Number of Kohn-Sham states (occupied + empty):       20
------------------------------------------------------------

------------------------------------------------------------
          Preparing all fixed parts of the calculation.
------------------------------------------------------------
  Determining machine precision:
    2.225073858507201E-308
  Setting up grids for atomic and cluster calculations.

  Creating wave function, potential, and density for free atoms.

  Species: Si

  List of occupied orbitals and eigenvalues:
    n    l              occ      energy [Ha]    energy [eV]
    1    0           2.0000       -65.775969     -1789.8552
    2    0           2.0000        -5.123557      -139.4191
    3    0           2.0000        -0.394463       -10.7339
    2    1           6.0000        -3.508175       -95.4623
    3    1           2.0000        -0.147003        -4.0002

  Creating fixed part of basis set: Ionic, confined, hydrogenic.
 
  Si                   ion:

  List of free ionic orbitals and eigenvalues:
    n    l      energy [Ha]    energy [eV]
    1    0       -66.641157     -1813.3982
    2    0        -5.964274      -162.2962
    3    0        -1.073878       -29.2217
    2    1        -4.350005      -118.3697
    3    1        -0.776571       -21.1316


  List of ionic basis orbitals and eigenvalues:
    n    l      energy [Ha]    energy [eV]    outer radius [A]
    3    0        -1.073878       -29.2217       5.187500
    3    2        -0.411371       -11.1940       5.447472

 
  Si                   hydrogenic:
 
  List of hydrogenic basis orbitals: 
    n    l      effective z      eigenvalue [eV]  inner max. [A]     outer max. [A]     outer radius [A]   
    3    2         4.200000       -26.6668           1.139231           1.139231           5.315897
    2    1         1.400000        -6.6027           1.490786           1.490786           5.447472
    4    3         6.200000       -32.6870           1.368518           1.368518           5.381283
    3    2         9.000000      -122.4512           0.527387           0.527387           4.012952
    5    4         9.400000       -48.0878           1.402391           1.402391           5.315897
    4    1         4.000000       -12.9760           0.374516           2.992555           5.514476
    1    0         0.650000        -5.7375           0.809009           0.809009           5.447472
    3    0         2.600000        -9.8948           0.149719           2.584230           5.514476
 

  Adding cutoff potential to free-atom effective potential.
  Creating atomic-like basis functions for current effective potential.

  Species Si                  :

  List of atomic basis orbitals and eigenvalues:
    n    l      energy [Ha]    energy [eV]    outer radius [A]
    1    0       -65.775969     -1789.8552       0.789468
    2    0        -5.123557      -139.4191       2.815114
    3    0        -0.394463       -10.7339       5.315897
    2    1        -3.508175       -95.4623       3.259919
    3    1        -0.147003        -4.0002       5.447472

  Assembling full basis from fixed parts.
  | Species Si :   atomic orbital   1 s accepted.
  | Species Si :   atomic orbital   2 s accepted.
  | Species Si :   atomic orbital   3 s accepted.
  | Species Si :    ionic orbital   3 s accepted.
  | Species Si :    hydro orbital   1 s accepted.
  | Species Si :    hydro orbital   3 s accepted.
  | Species Si :   atomic orbital   2 p accepted.
  | Species Si :   atomic orbital   3 p accepted.
  | Species Si :    hydro orbital   2 p accepted.
  | Species Si :    hydro orbital   4 p accepted.
  | Species Si :    ionic orbital   3 d accepted.
  | Species Si :    hydro orbital   3 d accepted.
  | Species Si :    hydro orbital   3 d accepted.
  | Species Si :    hydro orbital   4 f accepted.
  | Species Si :    hydro orbital   5 g accepted.
 
  Basis size parameters after reduction:
  | Total number of radial functions:       15
  | Total number of basis functions :       98
 
  Testing on-site integration grid accuracy.
  |  Species  Function  <phi|h_atom|phi> (log., in eV)  <phi|h_atom|phi> (rad., in eV)
           1        1              -1789.8551969286              -1789.8551654044
           1        2               -139.4190834032               -139.4190829157
           1        3                -10.7340112951                -10.7340152286
           1        4                  5.6758451027                  5.6757043852
           1        5                 38.3140264226                 38.3108124966
           1        6                113.2244114450                113.2211372667
           1        7                -95.4622899789                -95.4622898460
           1        8                 -4.0035070090                 -4.0036255172
           1        9                  4.8352944695                  4.8334925957
           1       10                 23.1173462136                 23.1137586236
           1       11                  4.3780971383                  4.3779968231
           1       12                 13.3987150446                 13.3974283002
           1       13                 62.7711850632                 62.7710084443
           1       14                 19.1745287805                 19.1745199964
           1       15                 35.6854583575                 35.6854563559

  Preparing densities etc. for the partition functions (integrals / Hartree potential).

  Preparations completed.
  max(cpu_time)          :      0.241 s.
  Wall clock time (cpu1) :      0.244 s.
------------------------------------------------------------

------------------------------------------------------------
          Begin self-consistency loop: Initialization.

          Date     :  20200522, Time     :  051536.606
------------------------------------------------------------

  Initializing index lists of integration centers etc. from given atomic structure:
  Mapping all atomic coordinates to central unit cell.

  Initializing the k-points
          Using symmetry for reducing the k-points
  | k-points reduced from:     1000 to      504
  | Number of k-points                             :       504
  The eigenvectors in the calculations are COMPLEX.
  | K-points in task   0:         6
  | K-points in task   1:         7
  | K-points in task   2:         7
  | K-points in task   3:         7
  | K-points in task   4:         7
  | K-points in task   5:         7
  | K-points in task   6:         7
  | K-points in task   7:         7
  | K-points in task   8:         7
  | K-points in task   9:         7
  | K-points in task  10:         7
  | K-points in task  11:         7
  | K-points in task  12:         7
  | K-points in task  13:         7
  | K-points in task  14:         7
  | K-points in task  15:         7
  | K-points in task  16:         7
  | K-points in task  17:         7
  | K-points in task  18:         7
  | K-points in task  19:         7
  | K-points in task  20:         7
  | K-points in task  21:         7
  | K-points in task  22:         7
  | K-points in task  23:         7
  | K-points in task  24:         7
  | K-points in task  25:         6
  | K-points in task  26:         6
  | K-points in task  27:         6
  | K-points in task  28:         6
  | K-points in task  29:         6
  | K-points in task  30:         6
  | K-points in task  31:         6
  | K-points in task  32:         6
  | K-points in task  33:         6
  | K-points in task  34:         6
  | K-points in task  35:         6
  | K-points in task  36:         6
  | K-points in task  37:         6
  | K-points in task  38:         6
  | K-points in task  39:         6
  | K-points in task  40:         6
  | K-points in task  41:         6
  | K-points in task  42:         6
  | K-points in task  43:         6
  | K-points in task  44:         6
  | K-points in task  45:         6
  | K-points in task  46:         6
  | K-points in task  47:         6
  | K-points in task  48:         6
  | K-points in task  49:         6
  | K-points in task  50:         6
  | K-points in task  51:         6
  | K-points in task  52:         6
  | K-points in task  53:         6
  | K-points in task  54:         6
  | K-points in task  55:         6
  | K-points in task  56:         6
  | K-points in task  57:         6
  | K-points in task  58:         6
  | K-points in task  59:         6
  | K-points in task  60:         6
  | K-points in task  61:         6
  | K-points in task  62:         6
  | K-points in task  63:         6
  | K-points in task  64:         6
  | K-points in task  65:         6
  | K-points in task  66:         6
  | K-points in task  67:         6
  | K-points in task  68:         6
  | K-points in task  69:         6
  | K-points in task  70:         6
  | K-points in task  71:         6
  | K-points in task  72:         6
  | K-points in task  73:         6
  | K-points in task  74:         6
  | K-points in task  75:         6
  | K-points in task  76:         6
  | K-points in task  77:         6
  | K-points in task  78:         6
  | K-points in task  79:         6
  | Number of basis functions in the Hamiltonian integrals :      4985
  | Number of basis functions in a single unit cell        :        98
  | Number of centers in hartree potential         :       558
  | Number of centers in hartree multipole         :       480
  | Number of centers in electron density summation:       336
  | Number of centers in basis integrals           :       378
  | Number of centers in integrals                 :       170
  | Consuming       1543 KiB for k_phase.
  | Number of super-cells :                 196
  | Size of matrix packed + index :      618623
  Perform CPU consistency test for lattice for partition grid
  Perform CPU consistency test for map_to_center_cell_matrix for partition grid
  Partitioning the integration grid into batches with parallel hashing+maxmin method.
  | Number of batches:      751
  | Maximal batch size:     109
  | Minimal batch size:       5
  | Average batch size:      75.712
  | Standard deviation of batch sizes:      17.305

  Integration load balanced across    80 MPI tasks.
  Work distribution over tasks is as follows:
  Task     0 has        680 integration points.
  Task     1 has        758 integration points.
  Task     2 has        744 integration points.
  Task     3 has        682 integration points.
  Task     4 has        686 integration points.
  Task     5 has        739 integration points.
  Task     6 has        750 integration points.
  Task     7 has        742 integration points.
  Task     8 has        747 integration points.
  Task     9 has        674 integration points.
  Task    10 has        702 integration points.
  Task    11 has        714 integration points.
  Task    12 has        746 integration points.
  Task    13 has        752 integration points.
  Task    14 has        701 integration points.
  Task    15 has        702 integration points.
  Task    16 has        756 integration points.
  Task    17 has        696 integration points.
  Task    18 has        690 integration points.
  Task    19 has        751 integration points.
  Task    20 has        698 integration points.
  Task    21 has        704 integration points.
  Task    22 has        754 integration points.
  Task    23 has        679 integration points.
  Task    24 has        756 integration points.
  Task    25 has        707 integration points.
  Task    26 has        709 integration points.
  Task    27 has        676 integration points.
  Task    28 has        741 integration points.
  Task    29 has        749 integration points.
  Task    30 has        736 integration points.
  Task    31 has        751 integration points.
  Task    32 has        738 integration points.
  Task    33 has        753 integration points.
  Task    34 has        759 integration points.
  Task    35 has        734 integration points.
  Task    36 has        690 integration points.
  Task    37 has        705 integration points.
  Task    38 has        667 integration points.
  Task    39 has        675 integration points.
  Task    40 has        739 integration points.
  Task    41 has        688 integration points.
  Task    42 has        664 integration points.
  Task    43 has        737 integration points.
  Task    44 has        674 integration points.
  Task    45 has        753 integration points.
  Task    46 has        699 integration points.
  Task    47 has        677 integration points.
  Task    48 has        671 integration points.
  Task    49 has        680 integration points.
  Task    50 has        665 integration points.
  Task    51 has        671 integration points.
  Task    52 has        695 integration points.
  Task    53 has        674 integration points.
  Task    54 has        737 integration points.
  Task    55 has        701 integration points.
  Task    56 has        753 integration points.
  Task    57 has        693 integration points.
  Task    58 has        675 integration points.
  Task    59 has        675 integration points.
  Task    60 has        667 integration points.
  Task    61 has        690 integration points.
  Task    62 has        748 integration points.
  Task    63 has        749 integration points.
  Task    64 has        680 integration points.
  Task    65 has        698 integration points.
  Task    66 has        676 integration points.
  Task    67 has        747 integration points.
  Task    68 has        704 integration points.
  Task    69 has        689 integration points.
  Task    70 has        704 integration points.
  Task    71 has        693 integration points.
  Task    72 has        753 integration points.
  Task    73 has        671 integration points.
  Task    74 has        736 integration points.
  Task    75 has        699 integration points.
  Task    76 has        749 integration points.
  Task    77 has        740 integration points.
  Task    78 has        677 integration points.
  Task    79 has        676 integration points.
  Initializing partition tables, free-atom densities, potentials, etc. across the integration grid (initialize_grid_storage).
  | initialize_grid_storage: Actual outermost partition radius vs. multipole_radius_free
  | (-- VB: in principle, multipole_radius_free should be larger, hence this output)
  | Species        1: outer_partition_radius =              6.000000000000000 AA, multipole_radius_free =              6.007157080273940 AA.
  | Original list of interatomic distances with         378 x        378 entries is created.
  | Net number of integration points:    56860
  | of which are non-zero points    :    44844
  | Numerical average free-atom electrostatic potential    :    -13.23635280 eV
  Obtaining max. number of non-zero basis functions in each batch (get_n_compute_maxes).
  | Maximal number of non-zero basis functions:     1968 in task     0
  | Maximal number of non-zero basis functions:     1979 in task     1
  | Maximal number of non-zero basis functions:     2011 in task     2
  | Maximal number of non-zero basis functions:     1971 in task     3
  | Maximal number of non-zero basis functions:     1961 in task     4
  | Maximal number of non-zero basis functions:     2011 in task     5
  | Maximal number of non-zero basis functions:     1986 in task     6
  | Maximal number of non-zero basis functions:     1981 in task     7
  | Maximal number of non-zero basis functions:     1960 in task     8
  | Maximal number of non-zero basis functions:     1948 in task     9
  | Maximal number of non-zero basis functions:     1977 in task    10
  | Maximal number of non-zero basis functions:     1930 in task    11
  | Maximal number of non-zero basis functions:     1893 in task    12
  | Maximal number of non-zero basis functions:     1990 in task    13
  | Maximal number of non-zero basis functions:     1975 in task    14
  | Maximal number of non-zero basis functions:     1932 in task    15
  | Maximal number of non-zero basis functions:     1995 in task    16
  | Maximal number of non-zero basis functions:     1954 in task    17
  | Maximal number of non-zero basis functions:     2013 in task    18
  | Maximal number of non-zero basis functions:     1979 in task    19
  | Maximal number of non-zero basis functions:     1985 in task    20
  | Maximal number of non-zero basis functions:     2006 in task    21
  | Maximal number of non-zero basis functions:     1941 in task    22
  | Maximal number of non-zero basis functions:     2060 in task    23
  | Maximal number of non-zero basis functions:     2058 in task    24
  | Maximal number of non-zero basis functions:     1979 in task    25
  | Maximal number of non-zero basis functions:     1945 in task    26
  | Maximal number of non-zero basis functions:     1931 in task    27
  | Maximal number of non-zero basis functions:     1945 in task    28
  | Maximal number of non-zero basis functions:     2059 in task    29
  | Maximal number of non-zero basis functions:     1983 in task    30
  | Maximal number of non-zero basis functions:     1949 in task    31
  | Maximal number of non-zero basis functions:     1999 in task    32
  | Maximal number of non-zero basis functions:     2012 in task    33
  | Maximal number of non-zero basis functions:     2026 in task    34
  | Maximal number of non-zero basis functions:     2004 in task    35
  | Maximal number of non-zero basis functions:     1996 in task    36
  | Maximal number of non-zero basis functions:     1978 in task    37
  | Maximal number of non-zero basis functions:     1946 in task    38
  | Maximal number of non-zero basis functions:     1899 in task    39
  | Maximal number of non-zero basis functions:     1960 in task    40
  | Maximal number of non-zero basis functions:     1916 in task    41
  | Maximal number of non-zero basis functions:     1849 in task    42
  | Maximal number of non-zero basis functions:     1925 in task    43
  | Maximal number of non-zero basis functions:     1905 in task    44
  | Maximal number of non-zero basis functions:     1888 in task    45
  | Maximal number of non-zero basis functions:     1963 in task    46
  | Maximal number of non-zero basis functions:     1954 in task    47
  | Maximal number of non-zero basis functions:     1950 in task    48
  | Maximal number of non-zero basis functions:     2012 in task    49
  | Maximal number of non-zero basis functions:     1968 in task    50
  | Maximal number of non-zero basis functions:     1947 in task    51
  | Maximal number of non-zero basis functions:     1926 in task    52
  | Maximal number of non-zero basis functions:     1914 in task    53
  | Maximal number of non-zero basis functions:     1949 in task    54
  | Maximal number of non-zero basis functions:     1967 in task    55
  | Maximal number of non-zero basis functions:     1906 in task    56
  | Maximal number of non-zero basis functions:     2007 in task    57
  | Maximal number of non-zero basis functions:     1962 in task    58
  | Maximal number of non-zero basis functions:     2026 in task    59
  | Maximal number of non-zero basis functions:     1938 in task    60
  | Maximal number of non-zero basis functions:     1914 in task    61
  | Maximal number of non-zero basis functions:     1940 in task    62
  | Maximal number of non-zero basis functions:     1996 in task    63
  | Maximal number of non-zero basis functions:     2007 in task    64
  | Maximal number of non-zero basis functions:     1909 in task    65
  | Maximal number of non-zero basis functions:     1985 in task    66
  | Maximal number of non-zero basis functions:     1954 in task    67
  | Maximal number of non-zero basis functions:     2031 in task    68
  | Maximal number of non-zero basis functions:     1860 in task    69
  | Maximal number of non-zero basis functions:     1937 in task    70
  | Maximal number of non-zero basis functions:     1928 in task    71
  | Maximal number of non-zero basis functions:     1988 in task    72
  | Maximal number of non-zero basis functions:     1913 in task    73
  | Maximal number of non-zero basis functions:     1931 in task    74
  | Maximal number of non-zero basis functions:     1939 in task    75
  | Maximal number of non-zero basis functions:     1894 in task    76
  | Maximal number of non-zero basis functions:     1920 in task    77
  | Maximal number of non-zero basis functions:     1920 in task    78
  | Maximal number of non-zero basis functions:     1994 in task    79
  Integrating Hamiltonian matrix: batch-based integration.
  Time summed over all CPUs for integration: real work       29.731 s, elapsed       33.127 s
  Integrating overlap matrix.
  Time summed over all CPUs for integration: real work       23.356 s, elapsed       26.460 s
  Decreasing sparse matrix size:
   Tolerance:  9.999999824516700E-014
   Hamiltonian matrix
  | Array has   555260 nonzero elements out of   618623 elements
  | Sparsity factor is 0.102
   Overlap matrix
  | Array has   522139 nonzero elements out of   618623 elements
  | Sparsity factor is 0.156
  New size of hamiltonian matrix:      556348

  Updating Kohn-Sham eigenvalues, eigenvectors, occupation numbers, and Fermi level.
  Solving generalized eigenproblem
  Transforming overlap matrix and checking for singularities.
  Overlap matrix is nonsingular at first k-point:
  | Lowest eigenvalue:  0.396443E-04
  Determining occupation numbers for Kohn-Sham eigenstates.
  | Chemical potential (Fermi level) in eV                 : -.60945423E+01
  | Error in electron count due to remaining E_F inaccuracy: 0.87030827E-10
  | Maximum occupation number of highest empty state:  2.17E-30

  Writing Kohn-Sham eigenvalues.
  K-point:       1 at    0.000000    0.000000    0.000000 (in units of recip. lattice)

  State    Occupation    Eigenvalue [Ha]    Eigenvalue [eV]
      1       2.00000         -65.803545        -1790.60556
      2       2.00000         -65.803545        -1790.60556
      3       2.00000          -5.155521         -140.28888
      4       2.00000          -5.155264         -140.28188
      5       2.00000          -3.540142          -96.33216
      6       2.00000          -3.540142          -96.33216
      7       2.00000          -3.540142          -96.33216
      8       2.00000          -3.539568          -96.31655
      9       2.00000          -3.539568          -96.31655
     10       2.00000          -3.539568          -96.31655
     11       2.00000          -0.670148          -18.23565
     12       1.97427          -0.239921           -6.52857
     13       1.97427          -0.239921           -6.52857
     14       1.97427          -0.239920           -6.52856
     15       0.00000          -0.138418           -3.76654
     16       0.00000          -0.138417           -3.76653
     17       0.00000          -0.138417           -3.76653
     18       0.00000          -0.125248           -3.40817
     19       0.00000           0.052299            1.42313
     20       0.00000           0.052300            1.42314

  What follows are estimated values for band gap, HOMO, LUMO, etc.
  | They are estimated on a discrete k-point grid and not necessarily exact.
  | For converged numbers, create a DOS and/or band structure plot on a denser k-grid.

  Highest occupied state (VBM) at     -6.52856332 eV (relative to internal zero)
  | Occupation number:      1.97426782
  | K-point:       1 at    0.000000    0.000000    0.000000 (in units of recip. lattice)

  Lowest unoccupied state (CBM) at    -5.63640967 eV (relative to internal zero)
  | Occupation number:      0.02027497
  | K-point:      32 at    0.000000    0.400000    0.400000 (in units of recip. lattice)

  ESTIMATED overall HOMO-LUMO gap:      0.89215365 eV between HOMO at k-point 1 and LUMO at k-point 32
  | This appears to be an indirect band gap.
  | Smallest direct gap :      2.73026451 eV for k_point 37 at    0.000000    0.400000    0.400000 (in units of recip. lattice)
  The gap value is above 0.2 eV. Unless you are using a very sparse k-point grid,
  this system is most likely an insulator or a semiconductor.
  Calculating total energy contributions from superposition of free atom densities.

  Total energy components:
  | Sum of eigenvalues            :        -329.67782216 Ha       -8970.98997989 eV
  | XC energy correction          :         -41.71922039 Ha       -1135.23774701 eV
  | XC potential correction       :          53.87801032 Ha        1466.09525480 eV
  | Free-atom electrostatic energy:        -263.22546275 Ha       -7162.72927720 eV
  | Hartree energy correction     :           0.00000000 Ha           0.00000000 eV
  | Entropy correction            :           0.00000000 Ha           0.00000005 eV
  | ---------------------------
  | Total energy                  :        -580.74449499 Ha      -15802.86174930 eV
  | Total energy, T -> 0          :        -580.74449498 Ha      -15802.86174925 eV  <-- do not rely on this value for anything but (periodic) metals
  | Electronic free energy        :        -580.74449498 Ha      -15802.86174921 eV

  Derived energy quantities:
  | Kinetic energy                :         582.27973655 Ha       15844.63779779 eV
  | Electrostatic energy          :       -1121.30501115 Ha      -30512.26180007 eV
  | Energy correction for multipole
  | error in Hartree potential    :           0.00000000 Ha           0.00000000 eV
  | Sum of eigenvalues per atom                           :       -4485.49498994 eV
  | Total energy (T->0) per atom                          :       -7901.43087463 eV  <-- do not rely on this value for anything but (periodic) metals
  | Electronic free energy per atom                       :       -7901.43087460 eV
  Initialize hartree_potential_storage
  Max. number of atoms included in rho_multipole:            2

  End scf initialization - timings             :  max(cpu_time)    wall_clock(cpu1)
  | Time for scf. initialization               :        1.094 s           1.097 s
  | Boundary condition initialization          :        0.080 s           0.081 s
  | Integration                                :        0.789 s           0.787 s
  | Solution of K.-S. eqns.                    :        0.110 s           0.110 s
  | Grid partitioning                          :        0.037 s           0.037 s
  | Preloading free-atom quantities on grid    :        0.011 s           0.010 s
  | Free-atom superposition energy             :        0.006 s           0.006 s
  | Total energy evaluation                    :        0.000 s           0.000 s
------------------------------------------------------------

------------------------------------------------------------
          Begin self-consistency iteration #    1

  Date     :  20200522, Time     :  051537.703
------------------------------------------------------------
  Evaluating new KS density using the density matrix
  Evaluating density matrix
  Time summed over all CPUs for getting density from density matrix: real work       47.165 s, elapsed       54.039 s
  Integration grid: deviation in total charge (<rho> - N_e) =   8.470735E-11
  Pulay mixing of updated and previous charge densities.

  Evaluating partitioned Hartree potential by multipole expansion.
  | Analytical far-field extrapolation by fixed multipoles:
  | Hartree multipole sum: apparent total charge =   0.202612E-03
  Summing up the Hartree potential.
  | Estimated reciprocal-space cutoff momentum G_max:         3.49925124 bohr^-1 .
  | Reciprocal lattice points for long-range Hartree potential:     180
  Time summed over all CPUs for potential: real work        4.711 s, elapsed        5.307 s
  | RMS charge density error from multipole expansion :   0.205596E-03
  | Average real-space part of the electrostatic potential :      0.01733586 eV

  Integrating Hamiltonian matrix: batch-based integration.
  Time summed over all CPUs for integration: real work       28.725 s, elapsed       32.162 s

  Updating Kohn-Sham eigenvalues, eigenvectors, occupation numbers, and Fermi level.
  Solving generalized eigenproblem
  Determining occupation numbers for Kohn-Sham eigenstates.
  | Chemical potential (Fermi level) in eV                 : -.60764093E+01
  | Error in electron count due to remaining E_F inaccuracy: 0.49421800E-10
  | Maximum occupation number of highest empty state:  2.31E-30

  Writing Kohn-Sham eigenvalues.
  K-point:       1 at    0.000000    0.000000    0.000000 (in units of recip. lattice)

  State    Occupation    Eigenvalue [Ha]    Eigenvalue [eV]
      1       2.00000         -65.801821        -1790.55864
      2       2.00000         -65.801821        -1790.55864
      3       2.00000          -5.154142         -140.25134
      4       2.00000          -5.153885         -140.24435
      5       2.00000          -3.538723          -96.29356
      6       2.00000          -3.538723          -96.29356
      7       2.00000          -3.538723          -96.29356
      8       2.00000          -3.538150          -96.27795
      9       2.00000          -3.538150          -96.27795
     10       2.00000          -3.538150          -96.27795
     11       2.00000          -0.669386          -18.21492
     12       1.97195          -0.238933           -6.50169
     13       1.97195          -0.238933           -6.50169
     14       1.97195          -0.238932           -6.50168
     15       0.00000          -0.137821           -3.75031
     16       0.00000          -0.137821           -3.75030
     17       0.00000          -0.137821           -3.75030
     18       0.00000          -0.124167           -3.37876
     19       0.00000           0.052843            1.43792
     20       0.00000           0.052843            1.43793

  What follows are estimated values for band gap, HOMO, LUMO, etc.
  | They are estimated on a discrete k-point grid and not necessarily exact.
  | For converged numbers, create a DOS and/or band structure plot on a denser k-grid.

  Highest occupied state (VBM) at     -6.50168063 eV (relative to internal zero)
  | Occupation number:      1.97194789
  | K-point:       1 at    0.000000    0.000000    0.000000 (in units of recip. lattice)

  Lowest unoccupied state (CBM) at    -5.62658515 eV (relative to internal zero)
  | Occupation number:      0.02201213
  | K-point:      32 at    0.000000    0.400000    0.400000 (in units of recip. lattice)

  ESTIMATED overall HOMO-LUMO gap:      0.87509549 eV between HOMO at k-point 1 and LUMO at k-point 32
  | This appears to be an indirect band gap.
  | Smallest direct gap :      2.72471041 eV for k_point 37 at    0.000000    0.400000    0.400000 (in units of recip. lattice)
  The gap value is above 0.2 eV. Unless you are using a very sparse k-point grid,
  this system is most likely an insulator or a semiconductor.

  Total energy components:
  | Sum of eigenvalues            :        -329.64190491 Ha       -8970.01262170 eV
  | XC energy correction          :         -41.72158563 Ha       -1135.30210861 eV
  | XC potential correction       :          53.88106641 Ha        1466.17841541 eV
  | Free-atom electrostatic energy:        -263.22546275 Ha       -7162.72927720 eV
  | Hartree energy correction     :          -0.03602638 Ha          -0.98032770 eV
  | Entropy correction            :           0.00000000 Ha           0.00000002 eV
  | ---------------------------
  | Total energy                  :        -580.74391326 Ha      -15802.84591981 eV
  | Total energy, T -> 0          :        -580.74391326 Ha      -15802.84591980 eV  <-- do not rely on this value for anything but (periodic) metals
  | Electronic free energy        :        -580.74391326 Ha      -15802.84591978 eV

  Derived energy quantities:
  | Kinetic energy                :         582.28141596 Ha       15844.68349689 eV
  | Electrostatic energy          :       -1121.30374359 Ha      -30512.22730809 eV
  | Energy correction for multipole
  | error in Hartree potential    :          -0.00019427 Ha          -0.00528623 eV
  | Sum of eigenvalues per atom                           :       -4485.00631085 eV
  | Total energy (T->0) per atom                          :       -7901.42295990 eV  <-- do not rely on this value for anything but (periodic) metals
  | Electronic free energy per atom                       :       -7901.42295989 eV

  Self-consistency convergence accuracy:
  | Change of charge density      : 0.1155E+00
  | Change of sum of eigenvalues  : 0.9774E+00 eV
  | Change of total energy        : 0.1583E-01 eV

  End self-consistency iteration #     1       :  max(cpu_time)    wall_clock(cpu1)
  | Time for this iteration                    :        1.283 s           1.284 s
  | Charge density update                      :        0.713 s           0.713 s
  | Density mixing & preconditioning           :        0.020 s           0.020 s
  | Hartree multipole update                   :        0.003 s           0.002 s
  | Hartree multipole summation                :        0.075 s           0.075 s
  | Integration                                :        0.419 s           0.419 s
  | Solution of K.-S. eqns.                    :        0.052 s           0.053 s
  | Total energy evaluation                    :        0.000 s           0.000 s
------------------------------------------------------------

------------------------------------------------------------
          Begin self-consistency iteration #    2

  Date     :  20200522, Time     :  051538.988
------------------------------------------------------------
  Evaluating new KS density using the density matrix
  Evaluating density matrix
  Time summed over all CPUs for getting density from density matrix: real work       46.506 s, elapsed       53.101 s
  Integration grid: deviation in total charge (<rho> - N_e) =   4.704148E-11
  Pulay mixing of updated and previous charge densities.

  Evaluating partitioned Hartree potential by multipole expansion.
  | Analytical far-field extrapolation by fixed multipoles:
  | Hartree multipole sum: apparent total charge =   0.366852E-02
  Summing up the Hartree potential.
  Time summed over all CPUs for potential: real work        5.546 s, elapsed        6.338 s
  | RMS charge density error from multipole expansion :   0.387998E-02
  | Average real-space part of the electrostatic potential :      0.32426115 eV

  Integrating Hamiltonian matrix: batch-based integration.
  Time summed over all CPUs for integration: real work       28.659 s, elapsed       32.325 s

  Updating Kohn-Sham eigenvalues, eigenvectors, occupation numbers, and Fermi level.
  Solving generalized eigenproblem
  Determining occupation numbers for Kohn-Sham eigenstates.
  | Chemical potential (Fermi level) in eV                 : -.57099236E+01
  | Error in electron count due to remaining E_F inaccuracy: 0.12490524E-08
  | Maximum occupation number of highest empty state:  8.03E-30

  What follows are estimated values for band gap, HOMO, LUMO, etc.
  | They are estimated on a discrete k-point grid and not necessarily exact.
  | For converged numbers, create a DOS and/or band structure plot on a denser k-grid.

  Highest occupied state (VBM) at     -5.98312560 eV (relative to internal zero)
  | Occupation number:      1.87777969
  | K-point:       1 at    0.000000    0.000000    0.000000 (in units of recip. lattice)

  Lowest unoccupied state (CBM) at    -5.40279985 eV (relative to internal zero)
  | Occupation number:      0.08861880
  | K-point:      32 at    0.000000    0.400000    0.400000 (in units of recip. lattice)

  ESTIMATED overall HOMO-LUMO gap:      0.58032574 eV between HOMO at k-point 1 and LUMO at k-point 32
  | This appears to be an indirect band gap.
  | Smallest direct gap :      2.54735664 eV for k_point 1 at    0.000000    0.400000    0.400000 (in units of recip. lattice)
  The gap value is above 0.2 eV. Unless you are using a very sparse k-point grid,
  this system is most likely an insulator or a semiconductor.

  Total energy components:
  | Sum of eigenvalues            :        -329.00492658 Ha       -8952.67955948 eV
  | XC energy correction          :         -41.77718491 Ha       -1136.81504189 eV
  | XC potential correction       :          53.95174539 Ha        1468.10168825 eV
  | Free-atom electrostatic energy:        -263.22546275 Ha       -7162.72927720 eV
  | Hartree energy correction     :          -0.68323910 Ha         -18.59188177 eV
  | Entropy correction            :          -0.00000012 Ha          -0.00000333 eV
  | ---------------------------
  | Total energy                  :        -580.73906795 Ha      -15802.71407210 eV
  | Total energy, T -> 0          :        -580.73906807 Ha      -15802.71407543 eV  <-- do not rely on this value for anything but (periodic) metals
  | Electronic free energy        :        -580.73906819 Ha      -15802.71407876 eV

  Derived energy quantities:
  | Kinetic energy                :         582.28774149 Ha       15844.85562324 eV
  | Electrostatic energy          :       -1121.24962453 Ha      -30510.75465345 eV
  | Energy correction for multipole
  | error in Hartree potential    :          -0.00373309 Ha          -0.10158259 eV
  | Sum of eigenvalues per atom                           :       -4476.33977974 eV
  | Total energy (T->0) per atom                          :       -7901.35703771 eV  <-- do not rely on this value for anything but (periodic) metals
  | Electronic free energy per atom                       :       -7901.35703938 eV

  Self-consistency convergence accuracy:
  | Change of charge density      : 0.1095E+00
  | Change of sum of eigenvalues  : 0.1733E+02 eV
  | Change of total energy        : 0.1318E+00 eV

  End self-consistency iteration #     2       :  max(cpu_time)    wall_clock(cpu1)
  | Time for this iteration                    :        1.282 s           1.283 s
  | Charge density update                      :        0.700 s           0.700 s
  | Density mixing & preconditioning           :        0.019 s           0.019 s
  | Hartree multipole update                   :        0.002 s           0.002 s
  | Hartree multipole summation                :        0.089 s           0.088 s
  | Integration                                :        0.419 s           0.420 s
  | Solution of K.-S. eqns.                    :        0.052 s           0.052 s
  | Total energy evaluation                    :        0.000 s           0.001 s
------------------------------------------------------------

------------------------------------------------------------
          Begin self-consistency iteration #    3

  Date     :  20200522, Time     :  051540.271
------------------------------------------------------------
  Evaluating new KS density using the density matrix
  Evaluating density matrix
  Time summed over all CPUs for getting density from density matrix: real work       46.811 s, elapsed       53.529 s
  Integration grid: deviation in total charge (<rho> - N_e) =   1.246743E-09
  Pulay mixing of updated and previous charge densities.

  Evaluating partitioned Hartree potential by multipole expansion.
  | Analytical far-field extrapolation by fixed multipoles:
  | Hartree multipole sum: apparent total charge =   0.247019E-02
  Summing up the Hartree potential.
  Time summed over all CPUs for potential: real work        5.547 s, elapsed        6.339 s
  | RMS charge density error from multipole expansion :   0.389080E-02
  | Average real-space part of the electrostatic potential :      0.30012508 eV

  Integrating Hamiltonian matrix: batch-based integration.
  Time summed over all CPUs for integration: real work       28.644 s, elapsed       32.097 s

  Updating Kohn-Sham eigenvalues, eigenvectors, occupation numbers, and Fermi level.
  Solving generalized eigenproblem
  Determining occupation numbers for Kohn-Sham eigenstates.
  | Chemical potential (Fermi level) in eV                 : -.57397995E+01
  | Error in electron count due to remaining E_F inaccuracy: 0.48282374E-08
  | Maximum occupation number of highest empty state:  7.36E-30

  What follows are estimated values for band gap, HOMO, LUMO, etc.
  | They are estimated on a discrete k-point grid and not necessarily exact.
  | For converged numbers, create a DOS and/or band structure plot on a denser k-grid.

  Highest occupied state (VBM) at     -6.02694179 eV (relative to internal zero)
  | Occupation number:      1.89283107
  | K-point:       1 at    0.000000    0.000000    0.000000 (in units of recip. lattice)

  Lowest unoccupied state (CBM) at    -5.41941574 eV (relative to internal zero)
  | Occupation number:      0.07804309
  | K-point:      32 at    0.000000    0.400000    0.400000 (in units of recip. lattice)

  ESTIMATED overall HOMO-LUMO gap:      0.60752606 eV between HOMO at k-point 1 and LUMO at k-point 32
  | This appears to be an indirect band gap.
  | Smallest direct gap :      2.56016727 eV for k_point 1 at    0.000000    0.400000    0.400000 (in units of recip. lattice)
  The gap value is above 0.2 eV. Unless you are using a very sparse k-point grid,
  this system is most likely an insulator or a semiconductor.

  Total energy components:
  | Sum of eigenvalues            :        -329.13406368 Ha       -8956.19355882 eV
  | XC energy correction          :         -41.76676645 Ha       -1136.53154118 eV
  | XC potential correction       :          53.93832564 Ha        1467.73651817 eV
  | Free-atom electrostatic energy:        -263.22546275 Ha       -7162.72927720 eV
  | Hartree energy correction     :          -0.55107991 Ha         -14.99564740 eV
  | Entropy correction            :          -0.00000010 Ha          -0.00000279 eV
  | ---------------------------
  | Total energy                  :        -580.73904716 Ha      -15802.71350643 eV
  | Total energy, T -> 0          :        -580.73904726 Ha      -15802.71350922 eV  <-- do not rely on this value for anything but (periodic) metals
  | Electronic free energy        :        -580.73904737 Ha      -15802.71351201 eV

  Derived energy quantities:
  | Kinetic energy                :         582.17750752 Ha       15841.85600444 eV
  | Electrostatic energy          :       -1121.14978823 Ha      -30508.03796969 eV
  | Energy correction for multipole
  | error in Hartree potential    :          -0.00379758 Ha          -0.10333751 eV
  | Sum of eigenvalues per atom                           :       -4478.09677941 eV
  | Total energy (T->0) per atom                          :       -7901.35675461 eV  <-- do not rely on this value for anything but (periodic) metals
  | Electronic free energy per atom                       :       -7901.35675601 eV

  Self-consistency convergence accuracy:
  | Change of charge density      : 0.1374E-01
  | Change of sum of eigenvalues  : -.3514E+01 eV
  | Change of total energy        : 0.5657E-03 eV

  End self-consistency iteration #     3       :  max(cpu_time)    wall_clock(cpu1)
  | Time for this iteration                    :        1.286 s           1.287 s
  | Charge density update                      :        0.706 s           0.706 s
  | Density mixing & preconditioning           :        0.019 s           0.020 s
  | Hartree multipole update                   :        0.003 s           0.003 s
  | Hartree multipole summation                :        0.089 s           0.089 s
  | Integration                                :        0.416 s           0.416 s
  | Solution of K.-S. eqns.                    :        0.052 s           0.052 s
  | Total energy evaluation                    :        0.000 s           0.001 s
------------------------------------------------------------

------------------------------------------------------------
          Begin self-consistency iteration #    4

  Date     :  20200522, Time     :  051541.558
------------------------------------------------------------
  Evaluating new KS density using the density matrix
  Evaluating density matrix
  Time summed over all CPUs for getting density from density matrix: real work       46.961 s, elapsed       54.201 s
  Integration grid: deviation in total charge (<rho> - N_e) =   4.825843E-09
  Pulay mixing of updated and previous charge densities.

  Evaluating partitioned Hartree potential by multipole expansion.
  | Analytical far-field extrapolation by fixed multipoles:
  | Hartree multipole sum: apparent total charge =   0.166218E-02
  Summing up the Hartree potential.
  Time summed over all CPUs for potential: real work        5.579 s, elapsed        6.371 s
  | RMS charge density error from multipole expansion :   0.430531E-02
  | Average real-space part of the electrostatic potential :      0.31114519 eV

  Integrating Hamiltonian matrix: batch-based integration.
  Time summed over all CPUs for integration: real work       28.767 s, elapsed       32.123 s

  Updating Kohn-Sham eigenvalues, eigenvectors, occupation numbers, and Fermi level.
  Solving generalized eigenproblem
  Determining occupation numbers for Kohn-Sham eigenstates.
  | Chemical potential (Fermi level) in eV                 : -.57224898E+01
  | Error in electron count due to remaining E_F inaccuracy: 0.41295856E-08
  | Maximum occupation number of highest empty state:  7.91E-30

  What follows are estimated values for band gap, HOMO, LUMO, etc.
  | They are estimated on a discrete k-point grid and not necessarily exact.
  | For converged numbers, create a DOS and/or band structure plot on a denser k-grid.

  Highest occupied state (VBM) at     -6.00751305 eV (relative to internal zero)
  | Occupation number:      1.89066136
  | K-point:       1 at    0.000000    0.000000    0.000000 (in units of recip. lattice)

  Lowest unoccupied state (CBM) at    -5.40371853 eV (relative to internal zero)
  | Occupation number:      0.07926146
  | K-point:      32 at    0.000000    0.400000    0.400000 (in units of recip. lattice)

  ESTIMATED overall HOMO-LUMO gap:      0.60379452 eV between HOMO at k-point 1 and LUMO at k-point 32
  | This appears to be an indirect band gap.
  | Smallest direct gap :      2.54935598 eV for k_point 1 at    0.000000    0.400000    0.400000 (in units of recip. lattice)
  The gap value is above 0.2 eV. Unless you are using a very sparse k-point grid,
  this system is most likely an insulator or a semiconductor.

  Total energy components:
  | Sum of eigenvalues            :        -329.18243951 Ha       -8957.50993207 eV
  | XC energy correction          :         -41.76490536 Ha       -1136.48089833 eV
  | XC potential correction       :          53.93570541 Ha        1467.66521825 eV
  | Free-atom electrostatic energy:        -263.22546275 Ha       -7162.72927720 eV
  | Hartree energy correction     :          -0.50195665 Ha         -13.65893536 eV
  | Entropy correction            :          -0.00000011 Ha          -0.00000309 eV
  | ---------------------------
  | Total energy                  :        -580.73905886 Ha      -15802.71382471 eV
  | Total energy, T -> 0          :        -580.73905897 Ha      -15802.71382780 eV  <-- do not rely on this value for anything but (periodic) metals
  | Electronic free energy        :        -580.73905908 Ha      -15802.71383089 eV

  Derived energy quantities:
  | Kinetic energy                :         582.07949877 Ha       15839.18905049 eV
  | Electrostatic energy          :       -1121.05365226 Ha      -30505.42197688 eV
  | Energy correction for multipole
  | error in Hartree potential    :          -0.00425231 Ha          -0.11571131 eV
  | Sum of eigenvalues per atom                           :       -4478.75496603 eV
  | Total energy (T->0) per atom                          :       -7901.35691390 eV  <-- do not rely on this value for anything but (periodic) metals
  | Electronic free energy per atom                       :       -7901.35691544 eV

  Self-consistency convergence accuracy:
  | Change of charge density      : 0.9724E-02
  | Change of sum of eigenvalues  : -.1316E+01 eV
  | Change of total energy        : -.3183E-03 eV

  End self-consistency iteration #     4       :  max(cpu_time)    wall_clock(cpu1)
  | Time for this iteration                    :        1.299 s           1.299 s
  | Charge density update                      :        0.714 s           0.714 s
  | Density mixing & preconditioning           :        0.019 s           0.019 s
  | Hartree multipole update                   :        0.002 s           0.003 s
  | Hartree multipole summation                :        0.090 s           0.089 s
  | Integration                                :        0.420 s           0.421 s
  | Solution of K.-S. eqns.                    :        0.052 s           0.053 s
  | Total energy evaluation                    :        0.000 s           0.000 s
------------------------------------------------------------

------------------------------------------------------------
          Begin self-consistency iteration #    5

  Date     :  20200522, Time     :  051542.858
------------------------------------------------------------
  Evaluating new KS density using the density matrix
  Evaluating density matrix
  Time summed over all CPUs for getting density from density matrix: real work       46.853 s, elapsed       53.564 s
  Integration grid: deviation in total charge (<rho> - N_e) =   4.127237E-09
  Pulay mixing of updated and previous charge densities.

  Evaluating partitioned Hartree potential by multipole expansion.
  | Analytical far-field extrapolation by fixed multipoles:
  | Hartree multipole sum: apparent total charge =  -0.110459E-03
  Summing up the Hartree potential.
  Time summed over all CPUs for potential: real work        5.590 s, elapsed        6.399 s
  | RMS charge density error from multipole expansion :   0.447659E-02
  | Average real-space part of the electrostatic potential :      0.30872138 eV

  Integrating Hamiltonian matrix: batch-based integration.
  Time summed over all CPUs for integration: real work       28.648 s, elapsed       32.180 s

  Updating Kohn-Sham eigenvalues, eigenvectors, occupation numbers, and Fermi level.
  Solving generalized eigenproblem
  Determining occupation numbers for Kohn-Sham eigenstates.
  | Chemical potential (Fermi level) in eV                 : -.57240885E+01
  | Error in electron count due to remaining E_F inaccuracy: 0.54721170E-08
  | Maximum occupation number of highest empty state:  7.93E-30

  What follows are estimated values for band gap, HOMO, LUMO, etc.
  | They are estimated on a discrete k-point grid and not necessarily exact.
  | For converged numbers, create a DOS and/or band structure plot on a denser k-grid.

  Highest occupied state (VBM) at     -6.01203863 eV (relative to internal zero)
  | Occupation number:      1.89364748
  | K-point:       1 at    0.000000    0.000000    0.000000 (in units of recip. lattice)

  Lowest unoccupied state (CBM) at    -5.40241861 eV (relative to internal zero)
  | Occupation number:      0.07708423
  | K-point:      32 at    0.000000    0.400000    0.400000 (in units of recip. lattice)

  ESTIMATED overall HOMO-LUMO gap:      0.60962001 eV between HOMO at k-point 1 and LUMO at k-point 32
  | This appears to be an indirect band gap.
  | Smallest direct gap :      2.54930802 eV for k_point 1 at    0.000000    0.400000    0.400000 (in units of recip. lattice)
  The gap value is above 0.2 eV. Unless you are using a very sparse k-point grid,
  this system is most likely an insulator or a semiconductor.

  Total energy components:
  | Sum of eigenvalues            :        -329.20542088 Ha       -8958.13528713 eV
  | XC energy correction          :         -41.76708819 Ha       -1136.54029617 eV
  | XC potential correction       :          53.93837045 Ha        1467.73773758 eV
  | Free-atom electrostatic energy:        -263.22546275 Ha       -7162.72927720 eV
  | Hartree energy correction     :          -0.47945587 Ha         -13.04665793 eV
  | Entropy correction            :          -0.00000011 Ha          -0.00000304 eV
  | ---------------------------
  | Total energy                  :        -580.73905724 Ha      -15802.71378084 eV
  | Total energy, T -> 0          :        -580.73905736 Ha      -15802.71378388 eV  <-- do not rely on this value for anything but (periodic) metals
  | Electronic free energy        :        -580.73905747 Ha      -15802.71378692 eV

  Derived energy quantities:
  | Kinetic energy                :         582.11256457 Ha       15840.08881690 eV
  | Electrostatic energy          :       -1121.08453363 Ha      -30506.26230157 eV
  | Energy correction for multipole
  | error in Hartree potential    :          -0.00444606 Ha          -0.12098345 eV
  | Sum of eigenvalues per atom                           :       -4479.06764356 eV
  | Total energy (T->0) per atom                          :       -7901.35689194 eV  <-- do not rely on this value for anything but (periodic) metals
  | Electronic free energy per atom                       :       -7901.35689346 eV

  Self-consistency convergence accuracy:
  | Change of charge density      : 0.4449E-02
  | Change of sum of eigenvalues  : -.6254E+00 eV
  | Change of total energy        : 0.4387E-04 eV

  End self-consistency iteration #     5       :  max(cpu_time)    wall_clock(cpu1)
  | Time for this iteration                    :        1.287 s           1.287 s
  | Charge density update                      :        0.706 s           0.706 s
  | Density mixing & preconditioning           :        0.019 s           0.020 s
  | Hartree multipole update                   :        0.002 s           0.002 s
  | Hartree multipole summation                :        0.090 s           0.090 s
  | Integration                                :        0.417 s           0.417 s
  | Solution of K.-S. eqns.                    :        0.052 s           0.052 s
  | Total energy evaluation                    :        0.000 s           0.000 s
------------------------------------------------------------

------------------------------------------------------------
          Begin self-consistency iteration #    6

  Date     :  20200522, Time     :  051544.146
------------------------------------------------------------
  Evaluating new KS density using the density matrix
  Evaluating density matrix
  Time summed over all CPUs for getting density from density matrix: real work       46.908 s, elapsed       54.021 s
  Integration grid: deviation in total charge (<rho> - N_e) =   5.469786E-09
  Pulay mixing of updated and previous charge densities.

  Evaluating partitioned Hartree potential by multipole expansion.
  | Analytical far-field extrapolation by fixed multipoles:
  | Hartree multipole sum: apparent total charge =  -0.305889E-03
  Summing up the Hartree potential.
  Time summed over all CPUs for potential: real work        5.581 s, elapsed        6.420 s
  | RMS charge density error from multipole expansion :   0.441057E-02
  | Average real-space part of the electrostatic potential :      0.30190857 eV

  Integrating Hamiltonian matrix: batch-based integration.
  Time summed over all CPUs for integration: real work       28.799 s, elapsed       32.205 s

  Updating Kohn-Sham eigenvalues, eigenvectors, occupation numbers, and Fermi level.
  Solving generalized eigenproblem
  Determining occupation numbers for Kohn-Sham eigenstates.
  | Chemical potential (Fermi level) in eV                 : -.57331595E+01
  | Error in electron count due to remaining E_F inaccuracy: 0.72130284E-08
  | Maximum occupation number of highest empty state:  7.69E-30

  What follows are estimated values for band gap, HOMO, LUMO, etc.
  | They are estimated on a discrete k-point grid and not necessarily exact.
  | For converged numbers, create a DOS and/or band structure plot on a denser k-grid.

  Highest occupied state (VBM) at     -6.02424742 eV (relative to internal zero)
  | Occupation number:      1.89676323
  | K-point:       1 at    0.000000    0.000000    0.000000 (in units of recip. lattice)

  Lowest unoccupied state (CBM) at    -5.40858095 eV (relative to internal zero)
  | Occupation number:      0.07495724
  | K-point:      32 at    0.000000    0.400000    0.400000 (in units of recip. lattice)

[...]
  | Energy correction for multipole
  | error in Hartree potential    :          -0.00441165 Ha          -0.12004712 eV
  | Sum of eigenvalues per atom                           :       -4479.26909964 eV
  | Total energy (T->0) per atom                          :       -7901.35685247 eV  <-- do not rely on this value for anything but (periodic) metals
  | Electronic free energy per atom                       :       -7901.35685392 eV

  atomic forces [eV/Ang]:
  -----------------------
  atom #    1
   Hellmann-Feynman              : -.237660E-06 -.802979E-03 -.397645E-02
   Multipole                     : -.292424E-11 -.248184E-03 0.114630E-02
   Pulay + GGA                   : -.100856E-04 0.109157E-02 0.292605E-02
   ----------------------------------------------------------------
   Total forces(   1)            : -.103232E-04 0.404088E-04 0.959022E-04
  atom #    2
   Hellmann-Feynman              : 0.253175E-06 0.802977E-03 0.397645E-02
   Multipole                     : -.886790E-12 0.248184E-03 -.114630E-02
   Pulay + GGA                   : 0.391754E-05 -.109155E-02 -.292606E-02
   ----------------------------------------------------------------
   Total forces(   2)            : 0.417071E-05 -.403852E-04 -.959072E-04

  Analytical stress tensor components [eV]         xx                  yy                  zz                  xy                  xz                  yz
  -----------------------------------------------------------------------------------------------------------------------------------------------------------
    Nuclear Hellmann-Feynman      :    -0.2297150988E+02   -0.2296965015E+02   -0.2297332490E+02    0.1103565282E-08    0.7798540907E-09    0.3994110435E-03
    Multipole Hellmann-Feynman    :    -0.4218117672E+02   -0.4218206002E+02   -0.4218127517E+02    0.1613972483E-09    0.1084682119E-09    0.2125864077E-03
    On-site Multipole corrections :    -0.3425724956E-01   -0.3420463298E-01   -0.3426308346E-01    0.8217311924E-12    0.2030159417E-11    0.1079164431E-04
    Strain deriv. of the orbitals :     0.6517636325E+02    0.6517565483E+02    0.6517837350E+02    0.6064576799E-07    0.4294720677E-07   -0.7372018365E-03
  -----------------------------------------------------------------------------------------------------------------------------------------------------------
  Sum of all contributions        :    -0.1058060305E-01   -0.1025997502E-01   -0.1048965812E-01    0.6191155225E-07    0.4383755923E-07   -0.1144127411E-03

  +-------------------------------------------------------------------+
  |              Analytical stress tensor - Symmetrized               |
  |                  Cartesian components [eV/A**3]                   |
  +-------------------------------------------------------------------+
  |                x                y                z                |
  |                                                                   |
  |  x        -0.00025875       0.00000000       0.00000000           |
  |  y         0.00000000      -0.00025090      -0.00000280           |
  |  z         0.00000000      -0.00000280      -0.00025652           |
  |                                                                   |
  |  Pressure:       0.00025539   [eV/A**3]                           |
  |                                                                   |
  +-------------------------------------------------------------------+


  Self-consistency convergence accuracy:
  | Change of charge density      : 0.1457E-07
  | Change of sum of eigenvalues  : -.1837E-06 eV
  | Change of total energy        : 0.4950E-10 eV
  | Change of forces              : 0.3837E-06 eV/A

  Writing Kohn-Sham eigenvalues.
  K-point:       1 at    0.000000    0.000000    0.000000 (in units of recip. lattice)

  State    Occupation    Eigenvalue [Ha]    Eigenvalue [eV]
      1       2.00000         -65.784204        -1790.07926
      2       2.00000         -65.784204        -1790.07926
      3       2.00000          -5.139846         -139.86231
      4       2.00000          -5.139591         -139.85539
      5       2.00000          -3.523856          -95.88901
      6       2.00000          -3.523856          -95.88901
      7       2.00000          -3.523856          -95.88900
      8       2.00000          -3.523290          -95.87361
      9       2.00000          -3.523290          -95.87361
     10       2.00000          -3.523290          -95.87360
     11       2.00000          -0.655659          -17.84138
     12       1.89617          -0.221280           -6.02134
     13       1.89615          -0.221280           -6.02133
     14       1.89614          -0.221279           -6.02131
     15       0.00000          -0.127456           -3.46827
     16       0.00000          -0.127454           -3.46821
     17       0.00000          -0.127454           -3.46821
     18       0.00000          -0.106401           -2.89532
     19       0.00000           0.062269            1.69443
     20       0.00000           0.062270            1.69445

  What follows are estimated values for band gap, HOMO, LUMO, etc.
  | They are estimated on a discrete k-point grid and not necessarily exact.
  | For converged numbers, create a DOS and/or band structure plot on a denser k-grid.

  Highest occupied state (VBM) at     -6.02130576 eV (relative to internal zero)
  | Occupation number:      1.89613538
  | K-point:       1 at    0.000000    0.000000    0.000000 (in units of recip. lattice)

  Lowest unoccupied state (CBM) at    -5.40688025 eV (relative to internal zero)
  | Occupation number:      0.07539244
  | K-point:      32 at    0.000000    0.400000    0.400000 (in units of recip. lattice)

  ESTIMATED overall HOMO-LUMO gap:      0.61442551 eV between HOMO at k-point 1 and LUMO at k-point 32
  | This appears to be an indirect band gap.
  | Smallest direct gap :      2.55303945 eV for k_point 1 at    0.000000    0.400000    0.400000 (in units of recip. lattice)
  The gap value is above 0.2 eV. Unless you are using a very sparse k-point grid,
  this system is most likely an insulator or a semiconductor.

  Self-consistency cycle converged.

  End self-consistency iteration #    18       :  max(cpu_time)    wall_clock(cpu1)
  | Time for this iteration                    :       20.968 s          20.980 s
  | Charge density & force component update    :       20.033 s          20.044 s
  | Density mixing                             :        0.001 s           0.001 s
  | Hartree multipole update                   :        0.003 s           0.002 s
  | Hartree multipole summation                :        0.460 s           0.460 s
  | Integration                                :        0.419 s           0.419 s
  | Solution of K.-S. eqns.                    :        0.052 s           0.052 s
  | Total energy evaluation                    :        0.001 s           0.001 s
------------------------------------------------------------
  Obtaining max. number of non-zero basis functions in each batch .
  Evaluating KS electron density on previously omitted grid points, using the density matrix.
  Evaluating density matrix
------------------------------------------------------------
  Quadrupole information:
  | electronic quadrupole moment [eAng^2]     :         -0.785109141879658E+02        -0.785104455528512E+02         0.157021359740817E+03
  | ionic quadrupole moment [eAng^2]          :         -0.785105216075250E+02        -0.785105216075250E+02         0.157021043215050E+03
  | Total quadrupole moment [eAng^2]          :         -0.381380796460657E-03        -0.153638703742618E-04         0.396744666854816E-03
  Removing unitary transformations (pure translations, rotations) from forces on atoms.
  Atomic forces before filtering:
  | Net force on center of mass :  -.615252E-05 0.235559E-07 -.506244E-08 eV/A
  Atomic forces after filtering:
  | Net force on center of mass :  -.136113E-20 0.000000E+00 0.000000E+00 eV/A

  Energy and forces in a compact form:
  | Total energy uncorrected      :         -0.158027137020260E+05 eV
  | Total energy corrected        :         -0.158027137049345E+05 eV  <-- do not rely on this value for anything but (periodic) metals
  | Electronic free energy        :         -0.158027137078431E+05 eV
  Total atomic forces (unitary forces cleaned) [eV/Ang]:
  |   1         -0.724697651666793E-05          0.403970016274453E-04          0.959046975881747E-04
  |   2          0.724697651666793E-05         -0.403970016274453E-04         -0.959046975881747E-04

  ------------------------------------ 
  Start decomposition of the XC Energy 
  ------------------------------------ 
  Hartree-Fock part   :          0.000000000 Ha              0.000000000 eV
  ------------------------------------ 
  X Energy            :        -40.673275352 Ha          -1106.776134467 eV
  C Energy GGA        :         -1.092613510 Ha            -29.731526331 eV
  Total XC Energy     :        -41.765888862 Ha          -1136.507660798 eV
  LDA X and C from self-consistent density 
  X Energy LDA        :        -37.618965066 Ha          -1023.664122897 eV
  C Energy LDA        :         -2.145535567 Ha            -58.382993261 eV
  ------------------------------------ 
  End decomposition of the XC Energy 
  ------------------------------------ 

  Performing Mulliken charge analysis on all atoms.
  Full analysis (per state, per k-point, etc.) will NOT be written to separate file 'Mulliken.out'.
  This file can be requested by stating 'output mulliken' explicitly.
  Summary of the per-atom charge analysis:
  |
  |  atom       electrons          charge             l=0             l=1             l=2             l=3             l=4
  |     1       14.000000       -0.000000        5.226480        8.381173        0.350015        0.035988        0.006344
  |     2       14.000000       -0.000000        5.226480        8.381173        0.350015        0.035988        0.006344
  |
  | Total       28.000000       -0.000000
 

  Calculating atom-projected density of states ...
  | Chemical potential is  -5.730857 eV.
  | writing projected DOS (shifted by the chemical potential) for species Si to file atom_projected_dos_Si0001.dat.
  | writing projected DOS (raw data) for species Si to file atom_proj_dos_Si0001_raw.dat.
  | writing projected DOS (shifted by the chemical potential) for species Si to file atom_projected_dos_Si0002.dat.
  | writing projected DOS (raw data) for species Si to file atom_proj_dos_Si0002_raw.dat.
  Performing Hirshfeld analysis of fragment charges and moments.
  ----------------------------------------------------------------------
  | Atom     1: Si
  |   Hirshfeld charge        :      0.00001592
  |   Free atom volume        :    102.74726785
  |   Hirshfeld volume        :     96.75765242
  |   Hirshfeld dipole vector :      0.00000000      -0.00000605       0.00000384
  |   Hirshfeld dipole moment :      0.00000716
  |   Hirshfeld second moments:      0.10252790       0.00000000      -0.00000000
  |                                  0.00000000       0.10249256       0.00001216
  |                                 -0.00000000       0.00001216       0.10255415
  ----------------------------------------------------------------------
  | Atom     2: Si
  |   Hirshfeld charge        :      0.00001592
  |   Free atom volume        :    102.74726785
  |   Hirshfeld volume        :     96.75765242
  |   Hirshfeld dipole vector :     -0.00000000       0.00000605      -0.00000384
  |   Hirshfeld dipole moment :      0.00000716
  |   Hirshfeld second moments:      0.10252790      -0.00000000       0.00000000
  |                                 -0.00000000       0.10249256       0.00001216
  |                                  0.00000000       0.00001216       0.10255415
  ----------------------------------------------------------------------

  Post-scf processing of Kohn-Sham eigenvalues on a denser k-point grid.
  | Using dos_kgrid_factors to calculate post-scf total density of states.
  | Electron chemical potential:    -5.730857283322 eV.
  Integrating Hamiltonian matrix: batch-based integration.
  Time summed over all CPUs for integration: real work       28.686 s, elapsed       36.661 s
  Processing batch of k-points:     1     1     1
  Processing batch of k-points:     1     1     2
  Processing batch of k-points:     1     1     3
  Processing batch of k-points:     1     2     1
  Processing batch of k-points:     1     2     2
  Processing batch of k-points:     1     2     3
  Processing batch of k-points:     1     3     1
  Processing batch of k-points:     1     3     2
  Processing batch of k-points:     1     3     3
  Processing batch of k-points:     2     1     1
  Processing batch of k-points:     2     1     2
  Processing batch of k-points:     2     1     3
  Processing batch of k-points:     2     2     1
  Processing batch of k-points:     2     2     2
  Processing batch of k-points:     2     2     3
  Processing batch of k-points:     2     3     1
  Processing batch of k-points:     2     3     2
  Processing batch of k-points:     2     3     3
  Processing batch of k-points:     3     1     1
  Processing batch of k-points:     3     1     2
  Processing batch of k-points:     3     1     3
  Processing batch of k-points:     3     2     1
  Processing batch of k-points:     3     2     2
  Processing batch of k-points:     3     2     3
  Processing batch of k-points:     3     3     1
  Processing batch of k-points:     3     3     2
  Processing batch of k-points:     3     3     3
  | writing perturbative DOS (shifted by electron chemical potential) to file KS_dos_total.dat
  | writing perturbative DOS (raw data) to file KS_dos_total_raw.dat

  -------------------------------------------------------------------
  Writing the requested band structure output:
  -------------------------------------------------------------------

  Integrating Hamiltonian matrix: batch-based integration.
  Time summed over all CPUs for integration: real work       28.686 s, elapsed       32.245 s

  Treating all   20 k-points in band plot segment #   1:


  "Band gap" along reciprocal space direction number:    1
  | Lowest unoccupied state:      -5.41446741 eV
  | Highest occupied state :      -6.02130576 eV
  | Energy difference      :       0.60683835 eV


  Treating all   20 k-points in band plot segment #   2:


  "Band gap" along reciprocal space direction number:    2
  | Lowest unoccupied state:      -5.27216213 eV
  | Highest occupied state :      -8.81863625 eV
  | Energy difference      :       3.54647412 eV


  Treating all   20 k-points in band plot segment #   3:


  "Band gap" along reciprocal space direction number:    3
  | Lowest unoccupied state:      -4.78960700 eV
  | Highest occupied state :      -8.40004811 eV
  | Energy difference      :       3.61044111 eV


  Treating all   20 k-points in band plot segment #   4:


  "Band gap" along reciprocal space direction number:    4
  | Lowest unoccupied state:      -4.78960700 eV
  | Highest occupied state :      -6.02130576 eV
  | Energy difference      :       1.23169876 eV


  Treating all   20 k-points in band plot segment #   5:


  "Band gap" along reciprocal space direction number:    5
  | Lowest unoccupied state:      -4.56318841 eV
  | Highest occupied state :      -6.02130576 eV
  | Energy difference      :       1.45811735 eV


  Treating all   20 k-points in band plot segment #   6:


  "Band gap" along reciprocal space direction number:    6
  | Lowest unoccupied state:      -4.78961249 eV
  | Highest occupied state :      -7.20230517 eV
  | Energy difference      :       2.41269268 eV


  Treating all   20 k-points in band plot segment #   7:


  "Band gap" along reciprocal space direction number:    7
  | Lowest unoccupied state:      -4.78961249 eV
  | Highest occupied state :      -8.40003212 eV
  | Energy difference      :       3.61041962 eV


  Treating all   20 k-points in band plot segment #   8:


  "Band gap" along reciprocal space direction number:    8
  | Lowest unoccupied state:      -4.56318841 eV
  | Highest occupied state :      -7.20230517 eV
  | Energy difference      :       2.63911676 eV


  Treating all   20 k-points in band plot segment #   9:


  "Band gap" along reciprocal space direction number:    9
  | Lowest unoccupied state:      -4.78960700 eV
  | Highest occupied state :      -7.20230517 eV
  | Energy difference      :       2.41269817 eV


  Treating all   20 k-points in band plot segment #  10:


  "Band gap" along reciprocal space direction number:   10
  | Lowest unoccupied state:      -5.27216213 eV
  | Highest occupied state :      -8.40003212 eV
  | Energy difference      :       3.12786998 eV

  "Band gap" of total set of bands:
  | Lowest unoccupied state:      -5.41446741 eV
  | Highest occupied state :      -6.02130576 eV
  | Energy difference      :       0.60683835 eV


------------------------------------------------------------------------------
  Final output of selected total energy values:

  The following output summarizes some interesting total energy values
  at the end of a run (AFTER all relaxation, molecular dynamics, etc.).

  | Total energy of the DFT / Hartree-Fock s.c.f. calculation      :         -15802.713702026 eV
  | Final zero-broadening corrected energy (caution - metals only) :         -15802.713704935 eV
  | For reference only, the value of 1 Hartree used in FHI-aims is :             27.211384500 eV

  Before relying on these values, please be sure to understand exactly which
  total energy value is referred to by a given number. Different objects may
  all carry the same name 'total energy'. Definitions:

  Total energy of the DFT / Hartree-Fock s.c.f. calculation:
  | Note that this energy does not include ANY quantities calculated after the
  | s.c.f. cycle, in particular not ANY RPA, MP2, etc. many-body perturbation terms.

  Final zero-broadening corrected energy:
  | For metallic systems only, a broadening of the occupation numbers at the Fermi
  | level can be extrapolated back to zero broadening by an electron-gas inspired
  | formula. For all systems that are not real metals, this value can be
  | meaningless and should be avoided.

------------------------------------------------------------------------------

------------------------------------------------------------
          Leaving FHI-aims.
          Date     :  20200522, Time     :  051625.920

          Computational steps:
          | Number of self-consistency cycles          :           18

          Detailed time accounting                     :  max(cpu_time)    wall_clock(cpu1)
          | Total time                                 :       49.561 s          49.612 s
          | Preparation time                           :        0.241 s           0.244 s
          | Grid partitioning                          :        0.037 s           0.037 s
          | Preloading free-atom quantities on grid    :        0.011 s           0.010 s
          | Free-atom superposition energy             :        0.006 s           0.006 s
          | Total time for integrations                :        8.312 s           8.313 s
          | Total time for solution of K.-S. equations :        1.052 s           1.055 s
          | Total time for density & force components  :       32.075 s          32.090 s
          | Total time for mixing & preconditioning    :        0.306 s           0.308 s
          | Total time for Hartree multipole update    :        0.042 s           0.043 s
          | Total time for Hartree multipole sum       :        2.341 s           2.340 s
          | Total time for total energy evaluation     :        0.006 s           0.007 s
          | Total time for scaled ZORA corrections     :        0.000 s           0.000 s

          Have a nice day.
------------------------------------------------------------
