 +---------------------------------------------------------------+
 |                                                               |
 |        ####### #     # ####### ####### ####### ######         |
 |        #     # ##    # #          #    #       #     #        |
 |        #     # # #   # #          #    #       #     #        |
 |        #     # #  #  # #####      #    #####   ######         |
 |        #     # #   # # #          #    #       #              |
 |        #     # #    ## #          #    #       #              |
 |        ####### #     # #######    #    ####### #              |
 |                                                               |
 |        Linear-Scaling Ab Initio Total Energy Program          |
 |                                                               |
 |          Release for academic collaborators of ODG            |
 |                                             Version 4.4.1     |
 |                                                               |
 +---------------------------------------------------------------+
 |                                                               |
 |  Authors:                                                     |
 |  Jacek Dziedzic, Peter D. Haynes, Nicholas D. M. Hine,        |
 |  Arash. A. Mostofi, Mike C. Payne and Chris-Kriton Skylaris   |
 |                                                               |
 |  Contributors:                                                |
 |  J. Aarons, L. Andrinopoulos, P. W. Avraam, R. A. Bell,       |
 |  S. J. Clark, G. C. Constantinescu, F. Corsetti, N. Corsini,  |
 |  O. Dieguez, S. M. M. Dubois,  J. M. Escartin, A. Greco,      |
 |  H. H. Helal,  Q. O. Hill, L. P. Lee, J.-H. Li,               |
 |  E. B. Linscott, G. Moynihan, D. D. O`Regan, O. K. Okan,      |
 |  M. J. S. Phipps, C. J. Pickard, M. I. J. Probert,            |
 |  L. E. Ratcliff, M. Robinson, A. Ruiz Serrano, J. S. Spencer, |
 |  E. W. Tait, G. Teobaldi, D. Turban, V. Vitale,               |
 |  K. A. Wilkinson, C. Weber, J. C. Womack                      |
 |  and T. J. Zuehlsdorff                                        |
 |                                                               |
 |                                   Copyright (c) 2004-2016     |
 |                                                               |
 |  Please cite:                                                 |
 |  "Introducing ONETEP: Linear-scaling density functional       |
 |   simulations on parallel computers".                         |
 |   C.-K. Skylaris, P. D. Haynes, A. A. Mostofi, M. C. Payne.   |
 |   J. Chem. Phys. 122 084119 (2005).                           |
 |                                                               |
 |          in all publications arising from your use of ONETEP. |
 |                                                               |
 +---------------------------------------------------------------+
 |                                                               |
 |   ONETEP is based on developments described in the following  |
 |   publications:                                               |
 |                                                               |
 |  "Nonorthogonal generalized Wannier function pseudopotential  |
 |   plane-wave method".                                         |
 |   C.-K. Skylaris, A. A. Mostofi, P. D. Haynes, O. Dieguez,    |
 |   M. C. Payne.                                                |
 |   Phys. Rev. B 66 035119 (2002).                              |
 |                                                               |
 |  "Preconditioned iterative minimization for linear-scaling    |
 |   electronic structure calculations".                         |
 |   A. A. Mostofi, P. D. Haynes, C.-K. Skylaris, M. C. Payne.   |
 |   J. Chem. Phys. 119(17), pp.8842-8848 (2003).                |
 |                                                               |
 |  "Total-energy calculations on a real space grid with         |
 |   localized functions and a plane-wave basis".                |
 |   A. A. Mostofi, C.-K. Skylaris, P. D. Haynes, M. C. Payne.   |
 |   Comput. Phys. Commun. 147, pp.788-802 (2002).               |
 |                                                               |
 |  "Accurate kinetic energy evaluation in electronic structure  |
 |   calculations with localized functions on real space grids"  |
 |   C.-K. Skylaris, A. A. Mostofi, P. D. Haynes, C. J. Pickard, |
 |   M. C. Payne.                                                |
 |   Comput. Phys. Commun. 140, pp.315-322 (2001).               |
 |                                                               |
 |  "Accurate ionic forces and geometry optimization in linear-  |
 |   scaling density-functional theory with local orbitals"      |
 |   N. D. M. Hine, M. Robinson, P. D. Haynes, C.-K. Skylaris,   |
 |   M. C. Payne, and A. A. Mostofi.                             |
 |   Phys. Rev. B 83 195102 (2011).                              |
 |                                                               |
 +---------------------------------------------------------------+

Job started: 28-04-2016 12:35 (+0100)
 
Reading parameters from file "ethene_tddft.dat" ...... done

If your calculation crashes here, before "Checking processes and threads..."
is displayed, then your stack size is insufficient.
If so, use "ulimit -s unlimited" at runtime.
You can disable this check with "check_stack_size F".

Checking processes and threads...
      Default threads: 4
   Running with 4 MPI processes.
   There are 4 MPI processes running on the same node as the root process.
   Each MPI process is using: 
               1 threads for simulation cell FFTs.
               1 threads for parallel FFT box operations.
               4 threads for loops over batched FFT box operations.
               4 threads in other parallel regions.
... done

Basic input checks...
WARNING: read_denskern overridden to T because of task LR_TDDFT.


WARNING: read_tightbox_ngwfs overridden to T because of task LR_TDDFT.


WARNING: cond_read_tightbox_ngwfs overridden to T because of task LR_TDDFT.

... done

Reading geometry and species blocks from file "ethene_tddft.dat" ...... done


--------------------------------------------------------------------------------
---------------------------------- INPUT FILE ----------------------------------
--------------------------------------------------------------------------------

task                 : LR_TDDFT                                                 
cutoff_energy        : 400 eV                                                   
xc_functional        : LDA                                                      
cond_num_states : 6                                                             
print_qc: T                                                                     
lr_tddft_write_kernels: F                                                       
lr_tddft_num_states: 2                                                          
lr_tddft_cg_threshold: 1.0E-7                                                   
lr_tddft_maxit_cg: 40                                                           
lr_tddft_reset_cg: 10                                                           
lr_tddft_restart: F                                                             
lr_tddft_projector: F                                                           
lr_tddft_joint_set: F                                                           
lr_tddft_analysis: F                                                            
lr_tddft_triplet: F                                                             
lr_tddft_preopt: F                                                              
lr_tddft_precond: T                                                             
lr_tddft_write_densities: F                                                     
lr_tddft_preopt_iter: 10                                                        
lr_tddft_xc_finite_diff: F                                                      
%block  lattice_cart                                                            
40.000    0.000    0.000                                                        
0.000   40.000    0.000                                                         
0.000    0.000   40.000                                                         
%endblock  lattice_cart                                                         
%block  positions_abs                                                           
     Hash =   000003804036565042708289
%endblock  positions_abs                                                        
%block  species                                                                 
H     H   1  1  5.50                                                            
C     C   6  4  6.00                                                            
%endblock  species                                                              
%block  species_cond                                                            
H     H   1  4  5.50                                                            
C     C   6  4  6.00                                                            
%endblock  species_cond                                                         
%block species_atomic_set                                                       
H    SOLVE                                                                      
C    SOLVE                                                                      
%endblock species_atomic_set                                                    
%block  species_pot                                                             
H     "../../pseudo/hydrogen.recpot"                                            
C     "../../pseudo/carbon.recpot"                                              
%endblock  species_pot                                                          

--------------------------------------------------------------------------------
-------------------------------- END INPUT FILE --------------------------------
--------------------------------------------------------------------------------


 
WARNING in pseudopotentials_read_species: string "GGA" found in pseudopotential
file "../../pseudo/carbon.recpot", yet xc_functional = "LDA".
 
<<<<<<<<<<<<<<<<<<<<<<<<< Pseudopotential information >>>>>>>>>>>>>>>>>>>>>>>>>>
File: ../../pseudo/carbon.recpot [ 2001 points up to Gmax=  52.9 (1/bohr)]
  Atomic number:  6;  ionic charge:  4.000000
    Shell 1: l = 0; rc = 1.48 bohr
File: ../../pseudo/hydrogen.recpot [ 2001 points up to Gmax=  52.9 (1/bohr)]
  Atomic number:  1;  ionic charge:  1.000000
    Local potential
<<<<<<<<<<<<<<<<<<<<<<<<<<<<<<<<<<<<<<<<>>>>>>>>>>>>>>>>>>>>>>>>>>>>>>>>>>>>>>>>

-------------------------- Atom counting information ---------------------------
Symbol    Natoms  Nvalngwfs Ncondngwfs  Nprojs
  C          2         8         8         2
  H          4         4        16         0
.......   ......    ......    ......    ......
Totals:      6        12        24         2
--------------------------------------------------------------------------------

=============================== PSINC grid sizes ===============================
                      Simulation cell:   56 x  56 x  56
                              FFT-box:   55 x  55 x  55
                                  PPD:    7 x   7 x   1
Grid space d1=  0.714285714286a0 (KE cutoff=  14.88881Eh = 405.14521eV)
Grid space d2=  0.714285714286a0 (KE cutoff=  14.88881Eh = 405.14521eV)
Grid space d3=  0.714285714286a0 (KE cutoff=  14.88881Eh = 405.14521eV)
================================================================================

********************* Fourier parallelisation information **********************
       Coarse grid (whole simulation cell) dimensions:     56    56    56
          Real-space ('12') slabs/node (min max mean):     14    14    14
         Recip-space ('23') slabs/node (min max mean):      7     8     7
********************************************************************************

********************* Fourier parallelisation information **********************
       Double grid (whole simulation cell) dimensions:    112   112   112
          Real-space ('12') slabs/node (min max mean):     28    28    28
         Recip-space ('23') slabs/node (min max mean):     14    15    14
********************************************************************************

Atom SCF Calculation for H  : Z (AE atom) =   1 : Z (PS atom) =   1
Config String:
Orbitals (num,occ):  1     1.00
Orbitals   (num,l):  1        0
Atom SCF converged after  39 iterations to a total energy of     -0.41130009

Atom SCF Calculation for C  : Z (AE atom) =   6 : Z (PS atom) =   4
Config String:
Orbitals (num,occ):  2     2.00 2.00
Orbitals   (num,l):  2        0    1
Atom SCF converged after  37 iterations to a total energy of     -5.30501233

Atom SCF Calculation for H  : Z (AE atom) =   1 : Z (PS atom) =   1
Config String:
Orbitals (num,occ):  3     1.00 0.00 0.00
Orbitals   (num,l):  3        0    0    1
Atom SCF converged after  39 iterations to a total energy of     -0.41130009
 
WARNING in ngwfs_initialise: Setting radial NGWF functions for species  1 (H):
Last NGWF on atom has m =  0 and does not complete set of m-values for l = 1.
This breaks symmetry and may cause unstable NGWF optimisation and poor 
convergence. Suggest increasing number of NGWFs per atom from   4 to   5.
NB: All NGWF radial function angular momenta:     0    0    1
 

Atom SCF Calculation for C  : Z (AE atom) =   6 : Z (PS atom) =   4
Config String:
Orbitals (num,occ):  2     2.00 2.00
Orbitals   (num,l):  2        0    1
Atom SCF converged after  37 iterations to a total energy of     -5.30501233

Determining parallel strategy ...... done
Basis initialisation ...... done
Sparse matrix initialisation ... done

Reading NGWFs from file "ethene_tddft.tightbox_ngwfs" ...  done

Reading density kernel from file "ethene_tddft.dkn" ... done
Conduction NGWF sparse matrix initialisation ...
Reading conduction NGWFs from file "ethene_tddft.tightbox_ngwfs_cond" ...  done
...Done
Generating conduction density kernel for     3 'occupied' orbitals
Up spin density kernel initialisation ...... done

Writing density kernel to file "ethene_tddft.dkn_cond" ... done
 
Joint Valence + Conduction NGWF sparse matrix initialisation ...Joint Valence + Conduction NGWF initialisation ...... done

Initial P_1 matrix:
  0.00125125888852  0.56358531449324  0.19330423902097  0.80874050111393  0.58500930814539  0.47987304300058  0.35029145176550  0.89596240119633  0.82284005249184  0.74660481582080  0.17410809656056  0.85894344920194
  0.71050141911069  0.51353495895260  0.30399487289041  0.01498458815271  0.09140293588061  0.36445204016236  0.14731284524064  0.16589861751152  0.98852504043703  0.44569231238746  0.11908322397534  0.00466933194983
  0.00891140476699  0.37788018433180  0.53166295358135  0.57118442335276  0.60176396984771  0.60716574602496  0.16623432111576  0.66304513687552  0.45078890346995  0.35212256233406  0.05703909421064  0.60768456068606
  0.78331858272042  0.80260628070925  0.51988280892361  0.30195013275552  0.87597277748955  0.72667622913297  0.95590075380718  0.92571794793542  0.53935361796930  0.14233832819605  0.46208075197607  0.23532822656941
  0.86223944822535  0.20960112308115  0.77965636158330  0.84365367595447  0.99679555650502  0.99969481490524  0.61149937437056  0.39243751335185  0.26621295815912  0.29728080080569  0.84014404736473  0.02374340037233
  0.37586596270638  0.09262367625965  0.67720572527238  0.05621509445479  0.00878933072909  0.91879024628437  0.27588732566301  0.27289651173437  0.58790856654561  0.69118320261238  0.83761101107822  0.72649311807611
  0.48493911557360  0.20535905026399  0.74373607593005  0.46845912045656  0.45796075319681  0.94915616321299  0.74443800164800  0.10827967162084  0.59904782250435  0.38523514511551  0.73500778221992  0.60896633808405
  0.57240516373180  0.36133915219581  0.15155491805780  0.22510452589496  0.42515335551012  0.80288094729453  0.51710562456130  0.98998992889187  0.75154881435591  0.34556108279672  0.16898098696860  0.65730765709403
  0.49189733573412  0.06353953672903  0.69975890377514  0.50480666524247  0.14749595629749  0.94958342234565  0.14157536545915  0.90511795403912  0.69289223914304  0.30304879909665  0.42655720694601  0.07037568285165
  0.96661275063326  0.68318735312967  0.15323343607898  0.87725455488754  0.82168034913175  0.58204901272622  0.19135105441450  0.17789239173559  0.81719412823878  0.47526474806970  0.15555284279916  0.50392162846767
  0.73201696829127  0.40559099093600  0.27958006530961  0.56874294259468  0.68224127933592  0.75585192419202  0.72191534165471  0.47529526657918  0.12302011169774  0.36780907620472  0.83468123416852  0.03509628589740
  0.51701406903287  0.66298409985656  0.42622150334178  0.10467848750267  0.94933927426984  0.92138431958983  0.54954680013428  0.34598834192938  0.47172460097049  0.37498092593158  0.84698019348735  0.31687368388928
  0.45609912411878  0.27188940092166  0.98297067171239  0.29779961546678  0.73918881801813  0.56727805413984  0.19598986785485  0.76131473738823  0.83944212164678  0.39765617847224  0.50090029602954  0.89016388439589
  0.02746665852840  0.99462874233222  0.57258827478866  0.05050813318278  0.53132724997711  0.19406720175787  0.84304330576495  0.62675862910855  0.65761284218879  0.19785149693289  0.84215826899014  0.12332529679250
  0.10992767113254  0.74312570574053  0.31406598101749  0.94106875820185  0.28608050782800  0.33631397442549  0.14026306955168  0.73308511612293  0.83462019714957  0.70799890133366  0.60023804437391  0.74721518601032
  0.25272377697073  0.14447462385937  0.00161748100223  0.06100650044252  0.80623798333689  0.85262611774041  0.21057771538438  0.11560411389508  0.55320902127140  0.01425214392529  0.11377300332652  0.45451216162603
  0.75222022156438  0.68614764854884  0.54344309823908  0.07388531144139  0.43671987060152  0.20194097720267  0.69621875667592  0.29035309915464  0.43668935209204  0.23242896816919  0.57786797692801  0.53257850886563
  0.62868129520554  0.16019165623951  0.50413525803400  0.96304208502457  0.69576097903378  0.92480239265114  0.18994720297861  0.33594775231178  0.17835016937773  0.99517807550279  0.45744193853572  0.99801629688406
  0.09750663777581  0.62517166661580  0.09439374980926  0.43772698141423  0.93151646473586  0.04843287453841  0.89461958677938  0.29001739555040  0.22730185857723  0.76906643879513  0.41071810052797  0.20197149571215
  0.62807092501602  0.60414441358684  0.45161290322581  0.46635334330271  0.59782708212531  0.63472396008179  0.85479293191321  0.82879116183966  0.62477492599261  0.72090823084201  0.56575212866604  0.37513351847896
  0.18427076021607  0.73790704062014  0.55513168736839  0.90508743552965  0.24286629840999  0.18894009216590  0.60472426526688  0.69850764488662  0.58461256752220  0.35129856257820  0.49446089053011  0.08038575395978
  0.74074526200140  0.61204870754112  0.62038026062807  0.69112216559343  0.80452894680624  0.14911343729972  0.57603686635945  0.86773277993103  0.91155735953856  0.61470381786554  0.72768333994568  0.04321420941801
  0.66777550584429  0.97653126621296  0.31501205481124  0.56920072023682  0.30582598345897  0.17392498550371  0.10855433820612  0.86904507583850  0.85122226630451  0.74431592761010  0.15488143559069  0.32691427350688
  0.07934812463759  0.07660145878475  0.64098025452437  0.82000183111057  0.54509109775079  0.44825586718345  0.40897854548784  0.29874568926054  0.46555986205634  0.50120548112430  0.15265358439894  0.32303842280343
  0.00137333292642  0.89162877285073  0.73848689230018  0.54307687612537  0.89980773339030  0.59968871120334  0.44526505325480  0.80663472396008  0.32670064394055  0.55897701956236  0.16959135715812  0.86028626361888
  0.38612018189032  0.01849421674245  0.98126163518174  0.54411450544755  0.90984832300790  0.92675557725761  0.20319223609119  0.88384655293435  0.33689382610553  0.91814935758538  0.57731864375744  0.21872615741447
  0.45457319864498  0.71535386211737  0.18195135349590  0.07397686696982  0.90673543504135  0.22925504318369  0.25782036805322  0.30808435316019  0.87594225898007  0.13699758903775  0.59813226722007  0.56727805413984
  0.84606463820307  0.22009949034089  0.65962706381420  0.57744071779534  0.85067293313395  0.24341563158055  0.05047761467330  0.30555131687368  0.11441389202551  0.65651417584765  0.55149998474075  0.52122562334056
  0.49314859462264  0.89840388195441  0.32648701437422  0.78994109927671  0.61882381664480  0.58717612231819  0.47871333964049  0.42936490981780  0.15619373149815  0.37559129612110  0.60911893063143  0.45957823419904
  0.07681508835108  0.75386822107608  0.53260902737510  0.07876827295755  0.35682241279336  0.58107242042299  0.80910672322764  0.69569994201483  0.00497451704459  0.62636188848537  0.24497207556383  0.04971465193640
  0.82696005127110  0.90099795525987  0.02175969725639  0.45039216284677  0.83208716086306  0.06280709250160  0.60780663472396  0.66713461714530  0.68926053651540  0.67430646687216  0.10928678243355  0.50062562944426
  0.13745536667989  0.59492782372509  0.21756645405438  0.56715598010193  0.75801873836482  0.29032258064516  0.40754417554247  0.32706686605426  0.01419110690634  0.33787041840876  0.54503006073183  0.88854640339366
  0.96478164006470  0.91152684102908  0.55812250129704  0.61806085390790  0.55748161259804  0.52571184423353  0.32950834681234  0.08890041810358  0.90911587878048  0.82097842341380  0.46552934354686  0.39848017822810
  0.47779778435621  0.67131565294351  0.09860530411695  0.38633381145665  0.53453169347209  0.39527573473312  0.37907040620136  0.78368480483413  0.83935056611835  0.35178685872982  0.81267738883633  0.82570879238258
  0.92922757652516  0.70198675496689  0.09994811853389  0.35828730124821  0.92324594866787  0.61836603900266  0.63420514542070  0.96996978667562  0.25174718466750  0.72234260078738  0.31327249977111  0.18030335398419
  0.21567430646687  0.03167821283609  0.82265694143498  0.21674245429853  0.78194524979400  0.19895016327403  0.04507583849605  0.40986358226264  0.52153080843532  0.32206183050020  0.75374614703818  0.73970763267922
  0.09656056398206  0.10849330118717  0.24442274239326  0.56318857387005  0.20224616229743  0.67436750389111  0.06399731437117  0.05481124301889  0.37022003845332  0.75923947874386  0.49031037324137  0.39139988402966
  0.53947569200720  0.63844721823786  0.92049928281503  0.21198156682028  0.80108035523545  0.51377910702841  0.82381664479507  0.38465529343547  0.22305978576006  0.66411328470717  0.41508224738304  0.61122470778527
  0.16153447065645  0.13672292245247  0.70506912442396  0.90081484420301  0.96453749198889  0.26136051515244  0.08410901211585  0.44419690542314  0.47428815576647  0.76732688375500  0.09524826807459  0.91946165349284
  0.23523667104099  0.78560747093112  0.55296487319559  0.76067384868923  0.81276894436476  0.51704458754234  0.66380809961241  0.42078920865505  0.12979522080142  0.84765160069582  0.30552079836421  0.15976439710685
  0.22721030304880  0.69237342448195  0.12021240882595  0.38950773644215  0.35419782097842  0.34894863734855  0.57869197668386  0.10650959807123  0.79525131992553  0.64238410596026  0.67122409741508  0.44380016479995
  0.33921323282571  0.14185003204443  0.38196966460158  0.87316507461776  0.79778435621204  0.23136082033753  0.60271004364147  0.08908352916044  0.47856074709311  0.31461531418806  0.64204840235603  0.10556352427747
  0.01974547563097  0.93658253730888  0.98693807794427  0.59709463789789  0.49229407635731  0.10162663655507  0.47212134159368  0.01477095858638  0.17590868861965  0.57081820123905  0.51429792168950  0.50962858973968
  0.91509750663778  0.41850032044435  0.56666768395032  0.19318216498306  0.46156193731498  0.63014618366039  0.45066682943205  0.76763206884976  0.70937223426008  0.02233954893643  0.72084719382305  0.05609302041688
  0.22843104342784  0.26645710623493  0.71916867580187  0.46488845484787  0.00375377666555  0.29685354167302  0.47505111850337  0.90816980498672  0.78539384136479  0.88528092287973  0.10730307931761  0.22714926602985
  0.95632801293985  0.66240424817652  0.88442640461440  0.63463240455336  0.32416760765404  0.36814477980895  0.59904782250435  0.21588793603320  0.74282052064577  0.61131626331370  0.41346476638081  0.01788384655293
  0.97036652729881  0.92065187536241  0.83178197576830  0.75725577562792  0.66991180150761  0.36796166875210  0.95544297616504  0.67885372478408  0.95892208624531  0.54481643116550  0.67827387310404  0.59593493453780
  0.41361735892819  0.17392498550371  0.97705008087405  0.64326914273507  0.93508713034455  0.13675344096194  0.95397808771020  0.77416302987762  0.38245796075320  0.19815668202765  0.78780480361339  0.53324991607410

################################################################################
########################### LR-TDDFT CG optimisation ###########################
################################################################################

################################################################################
######################### LR_TDDFT CG iteration    1 ###########################
****** Initial penalty functional value of K^{1}: Q[K^{1}] =   0.2235E-30 ******
P_1 after second orthogonalisation:
  0.06704336935693 -0.09119453217594  0.13088019815817 -0.23749333625534 -0.27220326942914 -0.05813008379236 -0.07882551551688 -0.28447165698593 -0.27193344478187  0.19993590982686 -0.13480399553579 -0.02224362136382
 -0.02288984648132  0.03445323947821 -0.03818355937846  0.06698111247647  0.09508482012761  0.01762661023907  0.02697547862969  0.08533254994659  0.09499376426267 -0.06802726014005  0.05106508525047  0.01079155390223
 -0.02998215157885  0.05313709466548 -0.02019190572470  0.03325464745973  0.08083848397158  0.01352259295199  0.02758760145492  0.05076389212578  0.08080192426310 -0.06042508636535  0.01679630561824 -0.00292265018302
 -0.00224450986425 -0.00623169330768 -0.04516125608628  0.08008669834728  0.08125952226708  0.01488316767780  0.01508798230767  0.09454625443631  0.08111940826253 -0.05229041757760  0.08992793188893  0.03140144887274
 -0.02044185280354  0.04881258048024  0.00370258299884 -0.02042109503784  0.08814879023059  0.00293968814250  0.02306694440817  0.00644813207953  0.08808713787823 -0.05461332356224  0.06224830134501  0.02274017577659
  0.01043155051439  0.03592825137594  0.17733709939074 -0.33499343948057 -0.21324751996357 -0.06007619859770 -0.04416232138777 -0.35774050272026 -0.21285613451831  0.15158007524745 -0.20377071156133 -0.05820836317458
  0.08142572357831 -0.14410553662394  0.00920144276805 -0.02459655957525 -0.06008831811350 -0.02315555085106 -0.04918410591234 -0.03254878647247 -0.06025006164460  0.07251358393680  0.15755208508889  0.08886089257084
  0.00661940019129 -0.01644888587456  0.00360935601131  0.00056840966785 -0.04995840488985 -0.00232835109872 -0.01087340023706 -0.01378042841402 -0.04990423548550  0.02971237345989 -0.04786926504529 -0.01862240513637
 -0.02970758675844  0.00050396986860 -0.13771310145276  0.27707095495015  0.10002638915520  0.05291370113960  0.03502123495940  0.27138110128709  0.09988536141046 -0.09444218750969  0.00581068607216 -0.02593079551303
  0.00581368768306  0.00724473369500  0.04148546540706 -0.08564865689551 -0.01532075155882 -0.01531222037653 -0.00679549538881 -0.07954224439391 -0.01528996513474  0.01929082970040  0.00937799566907  0.01189585689986
 -0.01403397407874  0.01201415098410 -0.02568527109336  0.05726165726999 -0.00150939273413  0.01226533542880  0.00765890781259  0.04881473383766 -0.00147981011727 -0.01135891209007 -0.05116582274434 -0.02947501986160
  0.01039425918774 -0.03594791254632 -0.04399301266590  0.08705511348688  0.01823769598744  0.01199650915866 -0.00058995519380  0.08304032055307  0.01815030654359 -0.01341925163734  0.04091317368806  0.01331856281121
  0.06625047956576 -0.09030087462733  0.12887077520700 -0.23375514165839 -0.26876008276751 -0.05728933867830 -0.07784127046630 -0.28022157142448 -0.26849407199906  0.19736065717376 -0.13305290916187 -0.02198452590237
 -0.02265371381121  0.03417863934213 -0.03761289885682  0.06591997952554  0.09409266897543  0.01738521891356  0.02668845706568  0.08412267274237  0.09400268270165 -0.06728319684057  0.05058008334205  0.01072587776460
 -0.01334426963381  0.01389642171369 -0.05037557870069  0.08848162012039  0.10675097562592  0.01917715028284  0.02454565159836  0.10856940187975  0.10660522751411 -0.07190785912596  0.09081470092060  0.02836159506732
 -0.02729591658547  0.05194230850510 -0.00296471044994  0.00292307365654  0.04673132795840  0.00741498008734  0.02047107470341  0.01412339721061  0.04674700339899 -0.03798470217664 -0.01643811843059 -0.01400705187830
 -0.01871400687736  0.04704565433741  0.00820620481874 -0.02900341519611  0.08155490084934  0.00105494210998  0.02105353319151 -0.00292762909056  0.08150031896768 -0.04944427283245  0.05971563216259  0.02275104632358
  0.07966043642801 -0.12127136248557  0.07275410640942 -0.14419504264789 -0.13297989835997 -0.04332394621543 -0.06179071169970 -0.15977613684428 -0.13298927560199  0.12233643433813  0.07335254382298  0.06186399141267
 -0.01981961053031  0.08574275779505  0.16178988467128 -0.30303799268777 -0.17661199138992 -0.04754324996073 -0.02325883152236 -0.32128369079470 -0.17618912063316  0.11476100710538 -0.24666697377475 -0.08633597834511
 -0.00600256839677  0.01583045766814 -0.00197603841392 -0.00368670792292  0.04760779594304  0.00164684105348  0.01015410977875  0.01038633952617  0.04755616222198 -0.02786351405110  0.04697799033218  0.01863584567706
 -0.03040861491374  0.00120469115231 -0.13945476862947  0.28045215289641  0.10228550855183  0.05365430056243  0.03577228440275  0.27497247709090  0.10214227183008 -0.09630727044656  0.00629712525011 -0.02615634898150
  0.00598575881989  0.00710031547381  0.04199161669769 -0.08663141499623 -0.01594256326504 -0.01551978482626 -0.00699307760652 -0.08057846472277 -0.01591108619186  0.01979954164381  0.00919205508758  0.01193464255936
  0.00486119265517 -0.02934364776321 -0.04956904428453  0.10040354558599  0.01576866195214  0.01531729464222  0.00196698212145  0.09359620045107  0.01569859058402 -0.01599246268049  0.01965105127752  0.00193474552264
 -0.01666876518157  0.02415534042906 -0.00731974284429  0.02046945322772 -0.00859461496211  0.00681693484768  0.00715125100901  0.01405530360794 -0.00853465476620 -0.00519914878717 -0.06256877702729 -0.03217418267847
 -0.14608940458148  0.26285771431983 -0.08029874296929 -0.05228348560053 -0.12130714283188  0.07817838978529  0.12366971582057 -0.02763970886732 -0.12120029205659 -0.19513636973079 -0.22042658425522 -0.13223934339149
  0.04552797333505 -0.08147412584247  0.02185451644862  0.01448616732530  0.03170535699142 -0.02332370511951 -0.04594907303265  0.00200851965055  0.03169152544130  0.07915325959293  0.05940775727331  0.03828571794603
  0.02472861287964 -0.04302334531397  0.00420943276357  0.02197895750142  0.01349941763851 -0.01161652624134 -0.03242628184085  0.01657599390934  0.01347792707929  0.05425200808005  0.05865911639903  0.03257767724273
  0.05607733489949 -0.10184995702372  0.03582318290052 -0.00661879245797  0.03857188866377 -0.02931305208805 -0.05246486900978 -0.02924108736309  0.03859771521152  0.09882547441089  0.02119729465305  0.02523817962690
  0.01278103835193 -0.02021681853666 -0.01262833225147 -0.00343631502411 -0.02529448260300 -0.00064395417119 -0.05494158210183 -0.03309182911367 -0.02519369407056  0.12505346076369 -0.02984341222248 -0.00330911072496
 -0.18994432080590  0.34771291378747 -0.14221835246336 -0.01268483169469 -0.18465236897780  0.10797444156108  0.11582111343151  0.01606481258401 -0.18453502505497 -0.17244945642071 -0.19426891944098 -0.12842503522067
  0.01209716546903 -0.02513719773115  0.02404375387191 -0.09614866255151 -0.02231151047202 -0.00344781309764 -0.03192188739192 -0.14933714350816 -0.02206261664167  0.11303339313477 -0.22253187102062 -0.08562804400492
 -0.01377723627633  0.02372453423907  0.00044552212699  0.00654209864300  0.00810140430271  0.00419598242102  0.03429610661270  0.02584312011701  0.00803945330303 -0.07713563877491  0.02093775333038  0.00196989141660
  0.11967872057524 -0.22065853370593  0.10365126166341  0.06243555357599  0.17105055663814 -0.07631293517387 -0.01394196488883  0.09816001319090  0.17073703862063 -0.05566374119391  0.28625676539417  0.14125459045837
 -0.03329954676674  0.06193802030544 -0.03270590896178 -0.01955044305992 -0.05501563828302  0.02249977310994 -0.00513985112245 -0.03532253537222 -0.05490475061203  0.03780613591964 -0.09090450691092 -0.04284428396376
  0.01295036476857 -0.02445010574763  0.01654893589195  0.03038417547320  0.04104468492595 -0.01163616519171  0.02257664399196  0.05676757790587  0.04091002557683 -0.07370682356267  0.10100331506673  0.04121129097951
  0.04316409419693 -0.08030502252636  0.04087071965216 -0.00295707693478  0.05202630495924 -0.02649509648562 -0.01238535333857 -0.00406815417390  0.05198250841820  0.00888427699756  0.04088087483658  0.02614411131412
 -0.14394774910638  0.25898079123136 -0.07896196534459 -0.05155591036530 -0.11929916687582  0.07699021043122  0.12215635792365 -0.02712303154358 -0.11919443367676 -0.19296664057919 -0.21707088478836 -0.13028595426916
  0.04492059252736 -0.08037527096547  0.02147929554720  0.01426924496116  0.03113574794947 -0.02298699843384 -0.04551800714992  0.00184831892598  0.03112253530817  0.07853829015376  0.05843365055604  0.03772226483777
  0.06227253179766 -0.11240911651356  0.03555333499626  0.00213212382818  0.04179053262514 -0.03210516463599 -0.06142523797376 -0.02104119143153  0.04180590002787  0.11292333901637  0.04258323931095  0.03625819599429
  0.00327555830967 -0.00418659808809 -0.00870390958571  0.02303186708419 -0.00088534375671 -0.00050937792219 -0.01159609557282  0.02612610736478 -0.00091519896225  0.01532115734274  0.04776645928232  0.02168333021294
  0.00827289185231 -0.01202710024500 -0.01566580177480 -0.00538518848677 -0.03012421862404  0.00195342990988 -0.05244209626945 -0.03513852107803 -0.03001664247541  0.12229822199188 -0.03832805096750 -0.00792303732141
 -0.05741298435418  0.10231785328008 -0.02906543189218 -0.09426403353599 -0.08767954647102  0.03585035925198  0.01200319124682 -0.13353629571659 -0.08740473142494  0.04332071951796 -0.27789102256213 -0.12632951640537
 -0.18120958161128  0.33281308546081 -0.14115031510564  0.02300662880699 -0.16389560542102  0.10178042422301  0.11929133346634  0.06898021664576 -0.16387629508177 -0.20125521411236 -0.10034066022968 -0.08856707425475
  0.01214934294922 -0.02076590890861 -0.00155163219997 -0.00724931122163 -0.00986219240892 -0.00325516538364 -0.03341419807397 -0.02659842165670 -0.00979773941907  0.07619114943455 -0.02402393909372 -0.00364269187415
  0.12132646809316 -0.22365873943611  0.10481951484151  0.06333495906487  0.17301933681784 -0.07729351713029 -0.01463295972062  0.09929107368154  0.17270247294221 -0.05526797846791  0.28993491208538  0.14315167869167
 -0.03378266027207  0.06281935095531 -0.03305803375681 -0.01977979415462 -0.05558759772565  0.02278727474363 -0.00493719687672 -0.03560638419067 -0.05547580163418  0.03767437505529 -0.09190580005828 -0.04336873073083
  0.04428222453661 -0.08253129144358  0.04357177475423  0.00783015802609  0.06245295895490 -0.02850562801560 -0.00326347111941  0.01614229981273  0.06236515947408 -0.01814740235543  0.07298572922140  0.03846559489645
 -0.00417064843618  0.00741371563044  0.00011718008522  0.02906900624307  0.01857584371663 -0.00086769708374  0.02564043889864  0.05390172460755  0.01846771110946 -0.07172917450255  0.07789919055429  0.02822755302972

           ........................................................
           |     *** TDDFT optimisation not converged ***         |
           |       LR-TDDFT energy  =     1.11315880506433        |
           ========================================================

################################################################################
######################### LR_TDDFT CG iteration    2 ###########################
****** Initial penalty functional value of K^{1}: Q[K^{1}] =   0.2235E-30 ******
******  Iteratively applying preconditioner on G^{1}: ******
    |STATE|    Final residue  |
      1    0.0000001401
      2    0.0000001933
****** Calculated RMS gradient of g_vec. RMS grad =   0.3596E+00 ******
Conjugate gradient coefficient=     0.1591793707
***** Calculated RMS gradient of search direction. RMS grad =   0.4404E+00 *****
****** Line-min: predicted omega=    0.70594062620787 *****
****** Performed line minimisation. Ideal step size Lambda =   0.2614E+01 ******

           ........................................................
           |     *** TDDFT optimisation not converged ***         |
           |       LR-TDDFT energy  =     0.72605877910927        |
           |       Change in omega  =    -0.38710002595506        |
           |       RMS gradient     =     0.35962565844538        |
           | --> Total change in omega higher than threshold      |
           ========================================================
<QC>                  [Omega]:         0.726058779109
<QC>            [delta_Omega]:        -0.387100025955
<QC>             [TDDFT_grad]:         0.359625658445

################################################################################
######################### LR_TDDFT CG iteration    3 ###########################
****** Initial penalty functional value of K^{1}: Q[K^{1}] =   0.2575E-30 ******
******  Iteratively applying preconditioner on G^{1}: ******
    |STATE|    Final residue  |
      1    0.0000004180
      2    0.0000007223
****** Calculated RMS gradient of g_vec. RMS grad =   0.1471E+00 ******
Conjugate gradient coefficient=     0.1936271244
***** Calculated RMS gradient of search direction. RMS grad =   0.1918E+00 *****
****** Line-min: predicted omega=    0.66228448012020 *****
****** Performed line minimisation. Ideal step size Lambda =   0.2515E+01 ******

           ........................................................
           |     *** TDDFT optimisation not converged ***         |
           |       LR-TDDFT energy  =     0.65988232756744        |
           |       Change in omega  =    -0.06617645154183        |
           |       RMS gradient     =     0.14707426420794        |
           | --> Total change in omega higher than threshold      |
           ========================================================
<QC>                  [Omega]:         0.659882327567
<QC>            [delta_Omega]:        -0.066176451542
<QC>             [TDDFT_grad]:         0.147074264208

################################################################################
######################### LR_TDDFT CG iteration    4 ###########################
****** Initial penalty functional value of K^{1}: Q[K^{1}] =   0.3448E-30 ******
******  Iteratively applying preconditioner on G^{1}: ******
    |STATE|    Final residue  |
      1    0.0000002060
      2    0.0000003088
****** Calculated RMS gradient of g_vec. RMS grad =   0.1082E+00 ******
Conjugate gradient coefficient=     0.4392817090
***** Calculated RMS gradient of search direction. RMS grad =   0.1599E+00 *****
****** Line-min: predicted omega=    0.61531642596812 *****
****** Performed line minimisation. Ideal step size Lambda =   0.3031E+01 ******

           ........................................................
           |     *** TDDFT optimisation not converged ***         |
           |       LR-TDDFT energy  =     0.61355785267040        |
           |       Change in omega  =    -0.04632447489704        |
           |       RMS gradient     =     0.10821922461359        |
           | --> Total change in omega higher than threshold      |
           ========================================================
<QC>                  [Omega]:         0.613557852670
<QC>            [delta_Omega]:        -0.046324474897
<QC>             [TDDFT_grad]:         0.108219224614

################################################################################
######################### LR_TDDFT CG iteration    5 ###########################
****** Initial penalty functional value of K^{1}: Q[K^{1}] =   0.2045E-30 ******
******  Iteratively applying preconditioner on G^{1}: ******
    |STATE|    Final residue  |
      1    0.0000008086
      2    0.0000008293
****** Calculated RMS gradient of g_vec. RMS grad =   0.6108E-01 ******
Conjugate gradient coefficient=     0.2978083216
***** Calculated RMS gradient of search direction. RMS grad =   0.8961E-01 *****
****** Line-min: predicted omega=    0.60300048739869 *****
****** Performed line minimisation. Ideal step size Lambda =   0.1934E+01 ******

           ........................................................
           |     *** TDDFT optimisation not converged ***         |
           |       LR-TDDFT energy  =     0.60263966246278        |
           |       Change in omega  =    -0.01091819020762        |
           |       RMS gradient     =     0.06107742455355        |
           | --> Total change in omega higher than threshold      |
           ========================================================
****** Checking for convergence of indivdual states *****
****** Number of newly converged states:    0  *****
<QC>                  [Omega]:         0.602639662463
<QC>            [delta_Omega]:        -0.010918190208
<QC>             [TDDFT_grad]:         0.061077424554

################################################################################
######################### LR_TDDFT CG iteration    6 ###########################
****** Initial penalty functional value of K^{1}: Q[K^{1}] =   0.3326E-30 ******
******  Iteratively applying preconditioner on G^{1}: ******
    |STATE|    Final residue  |
      1    0.0000004564
      2    0.0000004407
****** Calculated RMS gradient of g_vec. RMS grad =   0.2561E-01 ******
Conjugate gradient coefficient=     0.1050492942
***** Calculated RMS gradient of search direction. RMS grad =   0.3450E-01 *****
****** Line-min: predicted omega=    0.60001055043484 *****
****** Performed line minimisation. Ideal step size Lambda =   0.3037E+01 ******

           ........................................................
           |     *** TDDFT optimisation not converged ***         |
           |       LR-TDDFT energy  =     0.59990894676750        |
           |       Change in omega  =    -0.00273071569528        |
           |       RMS gradient     =     0.02560872225736        |
           | --> Total change in omega higher than threshold      |
           ========================================================
<QC>                  [Omega]:         0.599908946767
<QC>            [delta_Omega]:        -0.002730715695
<QC>             [TDDFT_grad]:         0.025608722257

################################################################################
######################### LR_TDDFT CG iteration    7 ###########################
****** Initial penalty functional value of K^{1}: Q[K^{1}] =   0.3367E-30 ******
******  Iteratively applying preconditioner on G^{1}: ******
    |STATE|    Final residue  |
      1    0.0000006217
      2    0.0000004409
****** Calculated RMS gradient of g_vec. RMS grad =   0.1397E-01 ******
Conjugate gradient coefficient=     0.2635300474
***** Calculated RMS gradient of search direction. RMS grad =   0.2151E-01 *****
****** Line-min: predicted omega=    0.59912066607453 *****
****** Performed line minimisation. Ideal step size Lambda =   0.3188E+01 ******

           ........................................................
           |     *** TDDFT optimisation not converged ***         |
           |       LR-TDDFT energy  =     0.59904620573754        |
           |       Change in omega  =    -0.00086274102996        |
           |       RMS gradient     =     0.01396709241975        |
           | --> Total change in omega higher than threshold      |
           ========================================================
<QC>                  [Omega]:         0.599046205738
<QC>            [delta_Omega]:        -0.000862741030
<QC>             [TDDFT_grad]:         0.013967092420

################################################################################
######################### LR_TDDFT CG iteration    8 ###########################
****** Initial penalty functional value of K^{1}: Q[K^{1}] =   0.3339E-30 ******
******  Iteratively applying preconditioner on G^{1}: ******
    |STATE|    Final residue  |
      1    0.0000003354
      2    0.0000003347
****** Calculated RMS gradient of g_vec. RMS grad =   0.1021E-01 ******
Conjugate gradient coefficient=     0.3819194006
***** Calculated RMS gradient of search direction. RMS grad =   0.1579E-01 *****
****** Line-min: predicted omega=    0.59861774065749 *****
****** Performed line minimisation. Ideal step size Lambda =   0.3747E+01 ******

           ........................................................
           |     *** TDDFT optimisation not converged ***         |
           |       LR-TDDFT energy  =     0.59855735775403        |
           |       Change in omega  =    -0.00048884798351        |
           |       RMS gradient     =     0.01020590085889        |
           | --> Total change in omega higher than threshold      |
           ========================================================
<QC>                  [Omega]:         0.598557357754
<QC>            [delta_Omega]:        -0.000488847984
<QC>             [TDDFT_grad]:         0.010205900859

################################################################################
######################### LR_TDDFT CG iteration    9 ###########################
****** Initial penalty functional value of K^{1}: Q[K^{1}] =   0.2404E-30 ******
******  Iteratively applying preconditioner on G^{1}: ******
    |STATE|    Final residue  |
      1    0.0000005589
      2    0.0000005708
****** Calculated RMS gradient of g_vec. RMS grad =   0.4159E-02 ******
Conjugate gradient coefficient=     0.1977733749
***** Calculated RMS gradient of search direction. RMS grad =   0.6946E-02 *****
****** Line-min: predicted omega=    0.59848307174992 *****
****** Performed line minimisation. Ideal step size Lambda =   0.2552E+01 ******

           ........................................................
           |     *** TDDFT optimisation not converged ***         |
           |       LR-TDDFT energy  =     0.59847850567297        |
           |       Change in omega  =    -0.00007885208106        |
           |       RMS gradient     =     0.00415894112580        |
           | --> Total change in omega higher than threshold      |
           ========================================================
<QC>                  [Omega]:         0.598478505673
<QC>            [delta_Omega]:        -0.000078852081
<QC>             [TDDFT_grad]:         0.004158941126

################################################################################
######################### LR_TDDFT CG iteration   10 ###########################
****** Initial penalty functional value of K^{1}: Q[K^{1}] =   0.1494E-30 ******
******  Iteratively applying preconditioner on G^{1}: ******
    |STATE|    Final residue  |
      1    0.0000007253
      2    0.0000002326
****** Calculated RMS gradient of g_vec. RMS grad =   0.2052E-02 ******
Conjugate gradient coefficient=     0.2851510554
***** Calculated RMS gradient of search direction. RMS grad =   0.3759E-02 *****
****** Line-min: predicted omega=    0.59845646386460 *****
****** Performed line minimisation. Ideal step size Lambda =   0.3457E+01 ******

           ........................................................
           |     *** TDDFT optimisation not converged ***         |
           |       LR-TDDFT energy  =     0.59845310413874        |
           |       Change in omega  =    -0.00002540153423        |
           |       RMS gradient     =     0.00205170232272        |
           | --> Total change in omega higher than threshold      |
           ========================================================
****** Checking for convergence of indivdual states *****
****** Number of newly converged states:    0  *****
<QC>                  [Omega]:         0.598453104139
<QC>            [delta_Omega]:        -0.000025401534
<QC>             [TDDFT_grad]:         0.002051702323

################################################################################
######################### LR_TDDFT CG iteration   11 ###########################
****** Initial penalty functional value of K^{1}: Q[K^{1}] =   0.2092E-30 ******
******  Iteratively applying preconditioner on G^{1}: ******
    |STATE|    Final residue  |
      1    0.0000006979
      2    0.0000007521
****** Calculated RMS gradient of g_vec. RMS grad =   0.1042E-02 ******
Conjugate gradient coefficient=     0.1296013698
***** Calculated RMS gradient of search direction. RMS grad =   0.1527E-02 *****
****** Line-min: predicted omega=    0.59844873270003 *****
****** Performed line minimisation. Ideal step size Lambda =   0.2919E+01 ******

           ........................................................
           |     *** TDDFT optimisation not converged ***         |
           |       LR-TDDFT energy  =     0.59844844703695        |
           |       Change in omega  =    -0.00000465710179        |
           |       RMS gradient     =     0.00104198479179        |
           | --> Total change in omega higher than threshold      |
           ========================================================
<QC>                  [Omega]:         0.598448447037
<QC>            [delta_Omega]:        -0.000004657102
<QC>             [TDDFT_grad]:         0.001041984792

################################################################################
######################### LR_TDDFT CG iteration   12 ###########################
****** Initial penalty functional value of K^{1}: Q[K^{1}] =   0.2789E-30 ******
******  Iteratively applying preconditioner on G^{1}: ******
    |STATE|    Final residue  |
      1    0.0000002293
      2    0.0000002798
****** Calculated RMS gradient of g_vec. RMS grad =   0.5673E-03 ******
Conjugate gradient coefficient=     0.0000003462
***** Calculated RMS gradient of search direction. RMS grad =   0.6947E-03 *****
****** Line-min: predicted omega=    0.59844775348130 *****
****** Performed line minimisation. Ideal step size Lambda =   0.2003E+01 ******

           ........................................................
           |     *** TDDFT optimisation not converged ***         |
           |       LR-TDDFT energy  =     0.59844773001617        |
           |       Change in omega  =    -0.00000071702078        |
           |       RMS gradient     =     0.00056725339121        |
           | --> Total change in omega higher than threshold      |
           ========================================================
<QC>                  [Omega]:         0.598447730016
<QC>            [delta_Omega]:        -0.000000717021
<QC>             [TDDFT_grad]:         0.000567253391

################################################################################
######################### LR_TDDFT CG iteration   13 ###########################
****** Initial penalty functional value of K^{1}: Q[K^{1}] =   0.2444E-30 ******
******  Iteratively applying preconditioner on G^{1}: ******
    |STATE|    Final residue  |
      1    0.0000004057
      2    0.0000005684
****** Calculated RMS gradient of g_vec. RMS grad =   0.3165E-03 ******
Conjugate gradient coefficient=     0.2737039273
***** Calculated RMS gradient of search direction. RMS grad =   0.4517E-03 *****
****** Line-min: predicted omega=    0.59844718221393 *****
****** Performed line minimisation. Ideal step size Lambda =   0.4996E+01 ******

           ........................................................
           |     *** TDDFT optimisation not converged ***         |
           |       LR-TDDFT energy  =     0.59844708294511        |
           |       Change in omega  =    -0.00000064707106        |
           |       RMS gradient     =     0.00031646939612        |
           | --> Total change in omega higher than threshold      |
           ========================================================
<QC>                  [Omega]:         0.598447082945
<QC>            [delta_Omega]:        -0.000000647071
<QC>             [TDDFT_grad]:         0.000316469396

################################################################################
######################### LR_TDDFT CG iteration   14 ###########################
****** Initial penalty functional value of K^{1}: Q[K^{1}] =   0.2546E-30 ******
******  Iteratively applying preconditioner on G^{1}: ******
    |STATE|    Final residue  |
      1    0.0000005675
      2    0.0000004892
****** Calculated RMS gradient of g_vec. RMS grad =   0.1894E-03 ******
Conjugate gradient coefficient=     0.2597461870
***** Calculated RMS gradient of search direction. RMS grad =   0.2910E-03 *****
****** Line-min: predicted omega=    0.59844696056240 *****
****** Performed line minimisation. Ideal step size Lambda =   0.2584E+01 ******

           ........................................................
           |     *** TDDFT optimisation not converged ***         |
           |       LR-TDDFT energy  =     0.59844695315111        |
           |       Change in omega  =    -0.00000012979400        |
           |       RMS gradient     =     0.00018941512282        |
           | --> Total change in omega higher than threshold      |
           ========================================================
<QC>                  [Omega]:         0.598446953151
<QC>            [delta_Omega]:        -0.000000129794
<QC>             [TDDFT_grad]:         0.000189415123

################################################################################
######################### LR_TDDFT CG iteration   15 ###########################
****** Initial penalty functional value of K^{1}: Q[K^{1}] =   0.2286E-30 ******
******  Iteratively applying preconditioner on G^{1}: ******
    |STATE|    Final residue  |
      1    0.0000002565
      2    0.0000002339
****** Calculated RMS gradient of g_vec. RMS grad =   0.1019E-03 ******
Conjugate gradient coefficient=     0.3445880259
***** Calculated RMS gradient of search direction. RMS grad =   0.1752E-03 *****
****** Line-min: predicted omega=    0.59844691405182 *****
****** Performed line minimisation. Ideal step size Lambda =   0.3081E+01 ******

           ........................................................
           |     *** TDDFT optimisation converged ***             |
           |       LR-TDDFT energy  =     0.59844690925315        |
           |       Change in omega  =    -0.00000004389796        |
           |       RMS gradient     =     0.00010189928140        |
           | --> Total change in omega lower than threshold       |
           ========================================================
****** Checking for convergence of indivdual states *****
****** Number of newly converged states:    0  *****
<QC>                  [Omega]:         0.598446909253
<QC>            [delta_Omega]:        -0.000000043898
<QC>             [TDDFT_grad]:         0.000101899281

             |ITER|    Total Energy   |     Penalty value      |     step       
               1    1.1131588051      0.2235387766E-30         0.7537461470
               2    0.7260587791      0.2574969041E-30         2.6135360566
               3    0.6598823276      0.3447713646E-30         2.5152395407
               4    0.6135578527      0.2044789585E-30         3.0309681492
               5    0.6026396625      0.3326008735E-30         1.9335915125
               6    0.5999089468      0.3366558428E-30         3.0366562720
               7    0.5990462057      0.3338699037E-30         3.1878170789
               8    0.5985573578      0.2404318054E-30         3.7471814676
               9    0.5984785057      0.1493501157E-30         2.5517924244
              10    0.5984531041      0.2091893536E-30         3.4568903831
              11    0.5984484470      0.2788506132E-30         2.9189642119
              12    0.5984477300      0.2443685157E-30         2.0034704212
              13    0.5984470829      0.2546384413E-30         4.9955189611
              14    0.5984469532      0.2286189520E-30         2.5835302696
              15    0.5984469093      0.2830392950E-30         3.0806835087

               |Excitation|    d_x (in D)   |     d_y (in D)  |    d_z (in D)   
                       1   -0.26482828E-02   -0.17138572E-02   -0.21880533E-02
                       2    0.21788038E-02    0.13300298E+00   -0.19550195E+00

   |Excitation|    Energy (in Ha)   |     Oscillator Str.  | Lifetime (in ns)   
           1        0.28743558          0.87430E-06          0.43087E+06
           2        0.31101133          0.35891E-02          0.89651E+02
<QC>                [omega_1]:         0.287435577873

------------------------------ TIMING INFORMATION ------------------------------
AVERAGE TIME:      43.582s on      4 node(s)                                    
TOTAL TIME:        43.583s on      4 node(s)                                    
================= AVERAGE TIMINGS FROM ALL NODES (CUMULATIVE) ==================
|| TAG                                    #calls    cpu time   %total  Gflops ||
|| work_imbalance                       :     1        0.00s   0.001%  ------ ||
|| basis_extract_function_from_box      :     9        0.00s   0.001%  ------ ||
|| restart_kernel_write                 :     1        0.00s   0.001%  ------ ||
|| pseudopotentials_nonlocal_mat        :     3        0.00s   0.009%  ------ ||
|| restart_kernel_read                  :     1        0.00s   0.011%  ------ ||
|| xc_energy_potential                  :     1        0.01s   0.031%  ------ ||
|| pseudo_make_structure_factor         :     1        0.01s   0.033%  ------ ||
|| restart_ngwfs_tightbox_input         :     2        0.02s   0.047%  ------ ||
|| fourier_apply_box_pair               :     9        0.02s   0.054%  23.395 ||
|| basis_dot_function_with_box          :  5337        0.04s   0.082%  ------ ||
|| basis_add_function_to_box            :  4248        0.04s   0.090%  ------ ||
|| projectors_init_fftbox_recip         :     3        0.05s   0.107%  ------ ||
|| pseudopotentials_local_on_grid       :     1        0.05s   0.109%  ------ ||
|| sparse_hotelling_invert              :     3        0.05s   0.126%  ------ ||
|| function_ops_brappd_ketppd           :     5        0.06s   0.140%  ------ ||
|| palser_mano_kernel_optimise          :     1        0.06s   0.144%  ------ ||
|| basis_copy_function_to_box           :   414        0.08s   0.191%  ------ ||
|| projectors_func_ovlp_box             :     3        0.10s   0.232%  ------ ||
|| integrals_kinetic                    :     3        0.15s   0.350%  ------ ||
|| sparse_init                          :     3        0.21s   0.487%  ------ ||
|| hamiltonian_lhxc_calculate           :     1        0.28s   0.632%  ------ ||
|| density_batch_row_sums               :    60        0.49s   1.130%  ------ ||
|| fourier_apply_cell_forward           :    59        0.90s   2.068%   4.752 ||
|| sparse_trace                         :  1876        0.95s   2.175%  ------ ||
|| fourier_apply_cell_backward          :    60        0.96s   2.191%   4.560 ||
|| cell_grid_extract_box                :   384        0.97s   2.224%  ------ ||
|| cell_grid_deposit_box                :   300        1.26s   2.896%  ------ ||
|| lr_tddft_utils_precond               :    28        1.56s   3.585%  ------ ||
|| density_fftbox_deposit_to_cell       :   300        1.80s   4.129%  ------ ||
|| hartree_on_grid                      :    59        1.87s   4.290%  ------ ||
|| integrals_locpot_mat_els_batch       :    62        1.88s   4.321%  ------ ||
|| optics_pos_mat_els                   :     1        2.17s   4.990%  ------ ||
|| sparse_product                       :  3849        2.84s   6.512%  ------ ||
|| density_fftbox_interpolate_multiply  :   300        4.51s  10.359%  ------ ||
|| fourier_apply_box                    :   863        8.09s  18.571%  31.620 ||
|| density_batch_interp_deposit         :    60       11.63s  26.681%  ------ ||
|| density_on_dbl_grid                  :    60       13.44s  30.841%  ------ ||
|| potential_apply_to_ngwf_batch        :    62       14.39s  33.025%  ------ ||
|| integrals_locpot_dbl_grid            :    62       16.35s  37.510%  ------ ||
|| linear_response_calc_SCF             :    58       17.58s  40.340%  ------ ||
|| linear_response_operator             :   266       34.09s  78.225%  ------ ||
|| lr_tddft_cg                          :     1       37.79s  86.699%  ------ ||
|| lr_tddft_calc_excitations            :     1       39.97s  91.717%  ------ ||
|| total_time                           :     1       43.58s 100.000%  ------ ||
================================================================================
Overhead of generating timer report: 
- 0 ms averaging over threads,
- 0 ms ensuring consistency across MPI ranks,
- 3 ms printing in order.

Job completed: 28-04-2016 12:36 (+0100)

