 +---------------------------------------------------------------+
 |                                                               |
 |        ####### #     # ####### ####### ####### ######         |
 |        #     # ##    # #          #    #       #     #        |
 |        #     # # #   # #          #    #       #     #        |
 |        #     # #  #  # #####      #    #####   ######         |
 |        #     # #   # # #          #    #       #              |
 |        #     # #    ## #          #    #       #              |
 |        ####### #     # #######    #    ####### #              |
 |                                                               |
 |        Linear-Scaling Ab Initio Total Energy Program          |
 |                                                               |
 |          Release for academic collaborators of ODG            |
 |                                             Version 4.4.1     |
 |                                                               |
 +---------------------------------------------------------------+
 |                                                               |
 |  Authors:                                                     |
 |  Jacek Dziedzic, Peter D. Haynes, Nicholas D. M. Hine,        |
 |  Arash. A. Mostofi, Mike C. Payne and Chris-Kriton Skylaris   |
 |                                                               |
 |  Contributors:                                                |
 |  J. Aarons, L. Andrinopoulos, P. W. Avraam, R. A. Bell,       |
 |  S. J. Clark, G. C. Constantinescu, F. Corsetti, N. Corsini,  |
 |  O. Dieguez, S. M. M. Dubois,  J. M. Escartin, A. Greco,      |
 |  H. H. Helal,  Q. O. Hill, L. P. Lee, J.-H. Li,               |
 |  E. B. Linscott, G. Moynihan, D. D. O`Regan, O. K. Okan,      |
 |  M. J. S. Phipps, C. J. Pickard, M. I. J. Probert,            |
 |  L. E. Ratcliff, M. Robinson, A. Ruiz Serrano, J. S. Spencer, |
 |  E. W. Tait, G. Teobaldi, D. Turban, V. Vitale,               |
 |  K. A. Wilkinson, C. Weber, J. C. Womack                      |
 |  and T. J. Zuehlsdorff                                        |
 |                                                               |
 |                                   Copyright (c) 2004-2016     |
 |                                                               |
 |  Please cite:                                                 |
 |  "Introducing ONETEP: Linear-scaling density functional       |
 |   simulations on parallel computers".                         |
 |   C.-K. Skylaris, P. D. Haynes, A. A. Mostofi, M. C. Payne.   |
 |   J. Chem. Phys. 122 084119 (2005).                           |
 |                                                               |
 |          in all publications arising from your use of ONETEP. |
 |                                                               |
 +---------------------------------------------------------------+
 |                                                               |
 |   ONETEP is based on developments described in the following  |
 |   publications:                                               |
 |                                                               |
 |  "Nonorthogonal generalized Wannier function pseudopotential  |
 |   plane-wave method".                                         |
 |   C.-K. Skylaris, A. A. Mostofi, P. D. Haynes, O. Dieguez,    |
 |   M. C. Payne.                                                |
 |   Phys. Rev. B 66 035119 (2002).                              |
 |                                                               |
 |  "Preconditioned iterative minimization for linear-scaling    |
 |   electronic structure calculations".                         |
 |   A. A. Mostofi, P. D. Haynes, C.-K. Skylaris, M. C. Payne.   |
 |   J. Chem. Phys. 119(17), pp.8842-8848 (2003).                |
 |                                                               |
 |  "Total-energy calculations on a real space grid with         |
 |   localized functions and a plane-wave basis".                |
 |   A. A. Mostofi, C.-K. Skylaris, P. D. Haynes, M. C. Payne.   |
 |   Comput. Phys. Commun. 147, pp.788-802 (2002).               |
 |                                                               |
 |  "Accurate kinetic energy evaluation in electronic structure  |
 |   calculations with localized functions on real space grids"  |
 |   C.-K. Skylaris, A. A. Mostofi, P. D. Haynes, C. J. Pickard, |
 |   M. C. Payne.                                                |
 |   Comput. Phys. Commun. 140, pp.315-322 (2001).               |
 |                                                               |
 |  "Accurate ionic forces and geometry optimization in linear-  |
 |   scaling density-functional theory with local orbitals"      |
 |   N. D. M. Hine, M. Robinson, P. D. Haynes, C.-K. Skylaris,   |
 |   M. C. Payne, and A. A. Mostofi.                             |
 |   Phys. Rev. B 83 195102 (2011).                              |
 |                                                               |
 +---------------------------------------------------------------+

Job started: 28-04-2016 12:34 (+0100)
 
Reading parameters from file "ethene_cond.dat" ...... done

If your calculation crashes here, before "Checking processes and threads..."
is displayed, then your stack size is insufficient.
If so, use "ulimit -s unlimited" at runtime.
You can disable this check with "check_stack_size F".

Checking processes and threads...
   Determining the default number of threads...
      No default threads set at compilation time: defaulting to 1.
      OpenMP library call suggests 4 threads.
      Hybrid MPI-OpenMP compilation detected.
      Number of MPI processes > 1.
      OMP_NUM_THREADS environment variable present and
      its value matches the one obtained from the OpenMP library call.
      Using this value as default.
      Default threads: 4
      Default applies to threads_max and threads_num_fftboxes.
      Settings in the input file override this default.
   ... done

   Running with 4 MPI processes.
   There are 4 MPI processes running on the same node as the root process.
   Each MPI process is using: 
               1 threads for simulation cell FFTs.
               1 threads for parallel FFT box operations.
               4 threads for loops over batched FFT box operations.
               4 threads in other parallel regions.
... done

Basic input checks...... done

Reading geometry and species blocks from file "ethene_cond.dat" ...    
  Number of PPD points along a3 set to 1.  This is 
  the default value, it may have been provided also in the input file.
... done


--------------------------------------------------------------------------------
---------------------------------- INPUT FILE ----------------------------------
--------------------------------------------------------------------------------

task                 : COND                                                     
cutoff_energy        : 400 eV                                                   
xc_functional        : LDA                                                      
do_properties        : TRUE                                                     
write_density_plot   : FALSE                                                    
popn_calculate       : FALSE                                                    
ngwf_analysis        : FALSE                                                    
dos_smear            : 0.1 eV                                                   
homo_plot            : 0                                                        
lumo_plot            : 0                                                        
ngwf_threshold_orig  : 1e-3                                                     
print_qc             : TRUE                                                     
timings_level        : 0                                                        
write_denskern       : TRUE                                                     
write_tightbox_ngwfs : TRUE                                                     
read_denskern        : TRUE                                                     
read_tightbox_ngwfs  : TRUE                                                     
output_detail : VERBOSE                                                         
cond_init_shift : 1.0                                                           
cond_shift_buffer : 0.1                                                         
cond_fixed_shift : FALSE                                                        
cond_calc_max_eigen : TRUE                                                      
cond_maxit_lnv : 5                                                              
cond_minit_lnv : 5                                                              
cond_num_states : 6                                                             
cond_num_extra_states : 4                                                       
cond_num_extra_its : 2                                                          
cond_calc_optical_spectra : TRUE                                                
cond_spec_calc_mom_mat_els : TRUE                                               
cond_spec_print_mat_els   : TRUE                                                
cond_spec_calc_nonloc_comm : TRUE                                               
cond_spec_cont_deriv : TRUE                                                     
cond_plot_joint_orbitals : TRUE                                                 
cond_plot_vc_orbitals : FALSE                                                   
%block  lattice_cart                                                            
40.000    0.000    0.000                                                        
0.000   40.000    0.000                                                         
0.000    0.000   40.000                                                         
%endblock  lattice_cart                                                         
%block  positions_abs                                                           
     Hash =   000003804036565042708289
%endblock  positions_abs                                                        
%block  species                                                                 
H     H   1  1  5.50                                                            
C     C   6  4  6.00                                                            
%endblock  species                                                              
%block  species_cond                                                            
H     H   1  4  5.50                                                            
C     C   6  4  6.00                                                            
%endblock  species_cond                                                         
%block species_atomic_set                                                       
H    SOLVE                                                                      
C    SOLVE                                                                      
%endblock species_atomic_set                                                    
%block species_ldos_groups                                                      
C                                                                               
H                                                                               
%endblock species_ldos_groups                                                   
pdos_max_l : 2                                                                  
%block species_pdos_groups                                                      
C                                                                               
H                                                                               
%endblock species_pdos_groups                                                   
%block  species_pot                                                             
H     "../../pseudo/hydrogen.recpot"                                            
C     "../../pseudo/carbon.recpot"                                              
%endblock  species_pot                                                          

--------------------------------------------------------------------------------
-------------------------------- END INPUT FILE --------------------------------
--------------------------------------------------------------------------------


 
 ESDF WARNING(1
 ): "condinitshift" (esdf_physical) has no units. Assume "hartree".
 ESDF WARNING(2
 ): "condshiftbuffer" (esdf_physical) has no units. Assume "hartree".
WARNING in pseudopotentials_read_species: string "GGA" found in pseudopotential
file "../../pseudo/carbon.recpot", yet xc_functional = "LDA".
 
<<<<<<<<<<<<<<<<<<<<<<<<< Pseudopotential information >>>>>>>>>>>>>>>>>>>>>>>>>>
File: ../../pseudo/carbon.recpot [ 2001 points up to Gmax=  52.9 (1/bohr)]
  Atomic number:  6;  ionic charge:  4.000000
    Shell 1: l = 0; rc = 1.48 bohr
File: ../../pseudo/hydrogen.recpot [ 2001 points up to Gmax=  52.9 (1/bohr)]
  Atomic number:  1;  ionic charge:  1.000000
    Local potential
<<<<<<<<<<<<<<<<<<<<<<<<<<<<<<<<<<<<<<<<>>>>>>>>>>>>>>>>>>>>>>>>>>>>>>>>>>>>>>>>

-------------------------- Atom counting information ---------------------------
Symbol    Natoms  Nvalngwfs Ncondngwfs  Nprojs
  C          2         8         8         2
  H          4         4        16         0
.......   ......    ......    ......    ......
Totals:      6        12        24         2
--------------------------------------------------------------------------------

=============================== PSINC grid sizes ===============================
                      Simulation cell:   56 x  56 x  56
                              FFT-box:   55 x  55 x  55
                                  PPD:    7 x   7 x   1
Grid space d1=  0.714285714286a0 (KE cutoff=  14.88881Eh = 405.14521eV)
Grid space d2=  0.714285714286a0 (KE cutoff=  14.88881Eh = 405.14521eV)
Grid space d3=  0.714285714286a0 (KE cutoff=  14.88881Eh = 405.14521eV)
================================================================================

********************* Fourier parallelisation information **********************
       Coarse grid (whole simulation cell) dimensions:     56    56    56
          Real-space ('12') slabs/node (min max mean):     14    14    14
         Recip-space ('23') slabs/node (min max mean):      7     8     7
********************************************************************************

********************* Fourier parallelisation information **********************
       Double grid (whole simulation cell) dimensions:    112   112   112
          Real-space ('12') slabs/node (min max mean):     28    28    28
         Recip-space ('23') slabs/node (min max mean):     14    15    14
********************************************************************************

Atom SCF Calculation for H  : Z (AE atom) =   1 : Z (PS atom) =   1
Config String:
Orbitals (num,occ):  1     1.00
Orbitals   (num,l):  1        0
Real-space Grid (nr,dr,rmax):  585    0.0094178082    5.5000000000
Spherical Bessel Basis (nsws,lmax,cutoff):   23    0   88.1975861389
Confining potential (l,width,scale):  0    3.0000000000  100.0000000000
  1 7995.0102176627   -0.2000206008    0.2820963115   -0.2319354442
  2 3197.7531855609   -0.1769389422    0.3113526924   -0.2529685049
  3 1662.6316071850   -0.1689252992    0.3215150298   -0.2604909803
  4  864.3696014794   -0.1649319161    0.3266500839   -0.2643089846
  5  449.2740622062   -0.1629985720    0.3291565968   -0.2661778844
  6  233.4247432520   -0.1620750829    0.3303593966   -0.2670771762
  7  121.1832758222   -0.1616372606    0.3309312458   -0.2675060002
  8   62.8177993639   -0.1614307319    0.3312015440   -0.2677093660
  9   32.4677933043   -0.1613337057    0.3313287524   -0.2678054332
 10   16.6858101454   -0.1612883007    0.3313883873   -0.2678506624
 11    8.4791884641   -0.1612671405    0.3314162334   -0.2678718868
 12    4.2117497553   -0.1612573252    0.3314291792   -0.2678818113
 13    1.9926838040   -0.1612527972    0.3314351673   -0.2678864336
 14    0.8387705465   -0.1612507220    0.3314379206   -0.2678885763
 15    0.2387361461   -0.1612497784    0.3314391774   -0.2678895640
 16   -0.0732815075   -0.1612493537    0.3314397460   -0.2678900164
 17   -0.2355305760   -0.1612491648    0.3314400004   -0.2678902219
 18   -0.3199000388   -0.1612490822    0.3314401126   -0.2678903142
 19   -0.3637721345   -0.1612490469    0.3314401611   -0.2678903552
 20   -0.3865856125   -0.1612490322    0.3314401816   -0.2678903731
 21   -0.3984486154   -0.1612490264    0.3314401899   -0.2678903807
 22   -0.4046173744   -0.1612490243    0.3314401930   -0.2678903839
 23   -0.4078251278   -0.1612490236    0.3314401941   -0.2678903851
 24   -0.4094931590   -0.1612490235    0.3314401944   -0.2678903856
 25   -0.4103605349   -0.1612490236    0.3314401944   -0.2678903857
 26   -0.4108115703   -0.1612490236    0.3314401944   -0.2678903857
 27   -0.4110461087   -0.1612490237    0.3314401943   -0.2678903857
 28   -0.4111680686   -0.1612490237    0.3314401942   -0.2678903857
 29   -0.4112314877   -0.1612490238    0.3314401942   -0.2678903857
 30   -0.4112644657   -0.1612490238    0.3314401942   -0.2678903857
 31   -0.4112816142   -0.1612490238    0.3314401942   -0.2678903857
 32   -0.4112905314   -0.1612490238    0.3314401942   -0.2678903857
 33   -0.4112951684   -0.1612490238    0.3314401942   -0.2678903857
 34   -0.4112975796   -0.1612490238    0.3314401942   -0.2678903857
 35   -0.4112988334   -0.1612490238    0.3314401942   -0.2678903857
 36   -0.4112994854   -0.1612490238    0.3314401942   -0.2678903857
 37   -0.4112998245   -0.1612490238    0.3314401942   -0.2678903857
 38   -0.4113000008   -0.1612490238    0.3314401942   -0.2678903857
 39   -0.4113000924   -0.1612490238    0.3314401942   -0.2678903857
Atom SCF converged after  39 iterations to a total energy of     -0.41130009

Atom SCF Calculation for C  : Z (AE atom) =   6 : Z (PS atom) =   4
Config String:
Orbitals (num,occ):  2     2.00 2.00
Orbitals   (num,l):  2        0    1
Real-space Grid (nr,dr,rmax):  637    0.0094339623    6.0000000000
Spherical Bessel Basis (nsws,lmax,cutoff):   25    1   88.1975861389
Confining potential (l,width,scale):  0    3.0000000000  100.0000000000
Confining potential (l,width,scale):  1    3.0000000000  100.0000000000
  1 2145.9860568468   -1.2260674427    4.5135338903   -1.4140640077
  2  855.0671858040   -1.1227367933    4.6240700346   -1.4444001355
  3  442.0764310673   -1.1186559485    4.6287746562   -1.4458076874
  4  227.3299000557   -1.1190205360    4.6284871740   -1.4458401540
  5  115.6641488001   -1.1199237340    4.6275490757   -1.4456551831
  6   57.5986545326   -1.1206019294    4.6268304840   -1.4454999050
  7   27.4048011661   -1.1210183235    4.6263866386   -1.4454015417
  8   11.7040586363   -1.1212553508    4.6261332676   -1.4453446988
  9    3.5396916247   -1.1213855305    4.6259935378   -1.4453127343
 10   -0.7057711243   -1.1214564633    4.6259175423   -1.4452954864
 11   -2.9134091956   -1.1214945461    4.6258767234   -1.4452861968
 12   -4.0613798568   -1.1215149230    4.6258548759   -1.4452812129
 13   -4.6583240584   -1.1215258068    4.6258432038   -1.4452785444
 14   -4.9687347718   -1.1215316149    4.6258369739   -1.4452771171
 15   -5.1301482032   -1.1215347128    4.6258336504   -1.4452763542
 16   -5.2140831144   -1.1215363647    4.6258318778   -1.4452759465
 17   -5.2577292297   -1.1215372455    4.6258309326   -1.4452757286
 18   -5.2804251893   -1.1215377151    4.6258304286   -1.4452756123
 19   -5.2922270775   -1.1215379654    4.6258301599   -1.4452755501
 20   -5.2983640535   -1.1215380988    4.6258300166   -1.4452755169
 21   -5.3015552780   -1.1215381700    4.6258299402   -1.4452754991
 22   -5.3032147131   -1.1215382079    4.6258298995   -1.4452754897
 23   -5.3040776185   -1.1215382281    4.6258298778   -1.4452754846
 24   -5.3045263288   -1.1215382389    4.6258298662   -1.4452754819
 25   -5.3047596580   -1.1215382446    4.6258298600   -1.4452754805
 26   -5.3048809890   -1.1215382477    4.6258298567   -1.4452754797
 27   -5.3049440810   -1.1215382493    4.6258298550   -1.4452754793
 28   -5.3049768889   -1.1215382502    4.6258298540   -1.4452754791
 29   -5.3049939489   -1.1215382506    4.6258298535   -1.4452754790
 30   -5.3050028202   -1.1215382509    4.6258298533   -1.4452754789
 31   -5.3050074332   -1.1215382510    4.6258298531   -1.4452754789
 32   -5.3050098319   -1.1215382511    4.6258298531   -1.4452754788
 33   -5.3050110793   -1.1215382511    4.6258298530   -1.4452754788
 34   -5.3050117279   -1.1215382511    4.6258298530   -1.4452754788
 35   -5.3050120652   -1.1215382512    4.6258298530   -1.4452754788
 36   -5.3050122406   -1.1215382512    4.6258298530   -1.4452754788
 37   -5.3050123318   -1.1215382512    4.6258298530   -1.4452754788
Atom SCF converged after  37 iterations to a total energy of     -5.30501233

Atom SCF Calculation for H  : Z (AE atom) =   1 : Z (PS atom) =   1
Config String:
Orbitals (num,occ):  3     1.00 0.00 0.00
Orbitals   (num,l):  3        0    0    1
Real-space Grid (nr,dr,rmax):  585    0.0094178082    5.5000000000
Spherical Bessel Basis (nsws,lmax,cutoff):   23    1   88.1975861389
Confining potential (l,width,scale):  0    3.0000000000  100.0000000000
Confining potential (l,width,scale):  1    3.0000000000  100.0000000000
  1 7995.0102176627   -0.2000206008    0.2820963115   -0.2319354442
  2 3197.7531855609   -0.1769389422    0.3113526924   -0.2529685049
  3 1662.6316071850   -0.1689252992    0.3215150298   -0.2604909803
  4  864.3696014794   -0.1649319161    0.3266500839   -0.2643089846
  5  449.2740622062   -0.1629985720    0.3291565968   -0.2661778844
  6  233.4247432520   -0.1620750829    0.3303593966   -0.2670771762
  7  121.1832758222   -0.1616372606    0.3309312458   -0.2675060002
  8   62.8177993639   -0.1614307319    0.3312015440   -0.2677093660
  9   32.4677933043   -0.1613337057    0.3313287524   -0.2678054332
 10   16.6858101454   -0.1612883007    0.3313883873   -0.2678506624
 11    8.4791884641   -0.1612671405    0.3314162334   -0.2678718868
 12    4.2117497553   -0.1612573252    0.3314291792   -0.2678818113
 13    1.9926838040   -0.1612527972    0.3314351673   -0.2678864336
 14    0.8387705465   -0.1612507220    0.3314379206   -0.2678885763
 15    0.2387361461   -0.1612497784    0.3314391774   -0.2678895640
 16   -0.0732815075   -0.1612493537    0.3314397460   -0.2678900164
 17   -0.2355305760   -0.1612491648    0.3314400004   -0.2678902219
 18   -0.3199000388   -0.1612490822    0.3314401126   -0.2678903142
 19   -0.3637721345   -0.1612490469    0.3314401611   -0.2678903552
 20   -0.3865856125   -0.1612490322    0.3314401816   -0.2678903731
 21   -0.3984486154   -0.1612490264    0.3314401899   -0.2678903807
 22   -0.4046173744   -0.1612490243    0.3314401930   -0.2678903839
 23   -0.4078251278   -0.1612490236    0.3314401941   -0.2678903851
 24   -0.4094931590   -0.1612490235    0.3314401944   -0.2678903856
 25   -0.4103605349   -0.1612490236    0.3314401944   -0.2678903857
 26   -0.4108115703   -0.1612490236    0.3314401944   -0.2678903857
 27   -0.4110461087   -0.1612490237    0.3314401943   -0.2678903857
 28   -0.4111680686   -0.1612490237    0.3314401942   -0.2678903857
 29   -0.4112314877   -0.1612490238    0.3314401942   -0.2678903857
 30   -0.4112644657   -0.1612490238    0.3314401942   -0.2678903857
 31   -0.4112816142   -0.1612490238    0.3314401942   -0.2678903857
 32   -0.4112905314   -0.1612490238    0.3314401942   -0.2678903857
 33   -0.4112951684   -0.1612490238    0.3314401942   -0.2678903857
 34   -0.4112975796   -0.1612490238    0.3314401942   -0.2678903857
 35   -0.4112988334   -0.1612490238    0.3314401942   -0.2678903857
 36   -0.4112994854   -0.1612490238    0.3314401942   -0.2678903857
 37   -0.4112998245   -0.1612490238    0.3314401942   -0.2678903857
 38   -0.4113000008   -0.1612490238    0.3314401942   -0.2678903857
 39   -0.4113000924   -0.1612490238    0.3314401942   -0.2678903857
Atom SCF converged after  39 iterations to a total energy of     -0.41130009
 
WARNING in ngwfs_initialise: Setting radial NGWF functions for species  1 (H):
Last NGWF on atom has m =  0 and does not complete set of m-values for l = 1.
This breaks symmetry and may cause unstable NGWF optimisation and poor 
convergence. Suggest increasing number of NGWFs per atom from   4 to   5.
NB: All NGWF radial function angular momenta:     0    0    1
 

Atom SCF Calculation for C  : Z (AE atom) =   6 : Z (PS atom) =   4
Config String:
Orbitals (num,occ):  2     2.00 2.00
Orbitals   (num,l):  2        0    1
Real-space Grid (nr,dr,rmax):  637    0.0094339623    6.0000000000
Spherical Bessel Basis (nsws,lmax,cutoff):   25    1   88.1975861389
Confining potential (l,width,scale):  0    3.0000000000  100.0000000000
Confining potential (l,width,scale):  1    3.0000000000  100.0000000000
  1 2145.9860568468   -1.2260674427    4.5135338903   -1.4140640077
  2  855.0671858040   -1.1227367933    4.6240700346   -1.4444001355
  3  442.0764310673   -1.1186559485    4.6287746562   -1.4458076874
  4  227.3299000557   -1.1190205360    4.6284871740   -1.4458401540
  5  115.6641488001   -1.1199237340    4.6275490757   -1.4456551831
  6   57.5986545326   -1.1206019294    4.6268304840   -1.4454999050
  7   27.4048011661   -1.1210183235    4.6263866386   -1.4454015417
  8   11.7040586363   -1.1212553508    4.6261332676   -1.4453446988
  9    3.5396916247   -1.1213855305    4.6259935378   -1.4453127343
 10   -0.7057711243   -1.1214564633    4.6259175423   -1.4452954864
 11   -2.9134091956   -1.1214945461    4.6258767234   -1.4452861968
 12   -4.0613798568   -1.1215149230    4.6258548759   -1.4452812129
 13   -4.6583240584   -1.1215258068    4.6258432038   -1.4452785444
 14   -4.9687347718   -1.1215316149    4.6258369739   -1.4452771171
 15   -5.1301482032   -1.1215347128    4.6258336504   -1.4452763542
 16   -5.2140831144   -1.1215363647    4.6258318778   -1.4452759465
 17   -5.2577292297   -1.1215372455    4.6258309326   -1.4452757286
 18   -5.2804251893   -1.1215377151    4.6258304286   -1.4452756123
 19   -5.2922270775   -1.1215379654    4.6258301599   -1.4452755501
 20   -5.2983640535   -1.1215380988    4.6258300166   -1.4452755169
 21   -5.3015552780   -1.1215381700    4.6258299402   -1.4452754991
 22   -5.3032147131   -1.1215382079    4.6258298995   -1.4452754897
 23   -5.3040776185   -1.1215382281    4.6258298778   -1.4452754846
 24   -5.3045263288   -1.1215382389    4.6258298662   -1.4452754819
 25   -5.3047596580   -1.1215382446    4.6258298600   -1.4452754805
 26   -5.3048809890   -1.1215382477    4.6258298567   -1.4452754797
 27   -5.3049440810   -1.1215382493    4.6258298550   -1.4452754793
 28   -5.3049768889   -1.1215382502    4.6258298540   -1.4452754791
 29   -5.3049939489   -1.1215382506    4.6258298535   -1.4452754790
 30   -5.3050028202   -1.1215382509    4.6258298533   -1.4452754789
 31   -5.3050074332   -1.1215382510    4.6258298531   -1.4452754789
 32   -5.3050098319   -1.1215382511    4.6258298531   -1.4452754788
 33   -5.3050110793   -1.1215382511    4.6258298530   -1.4452754788
 34   -5.3050117279   -1.1215382511    4.6258298530   -1.4452754788
 35   -5.3050120652   -1.1215382512    4.6258298530   -1.4452754788
 36   -5.3050122406   -1.1215382512    4.6258298530   -1.4452754788
 37   -5.3050123318   -1.1215382512    4.6258298530   -1.4452754788
Atom SCF converged after  37 iterations to a total energy of     -5.30501233

Determining parallel strategy ...
... using space-filling curve
... NGWF load balancing: max      5;  min      1;  average      3
... Projector load balancing: max      1;  min      0;  average      1
... Conduction NGWF load balancing: max      8;  min      4;  average      6
... Joint NGWF load balancing: max     13;  min      5;  average      9
... done
Basis initialisation ...... NGWF spheres initialised
... Projector spheres initialised
... Conduction NGWF spheres initialised
... NGWF tight boxes initialised
... Conduction NGWF tight boxes initialised
... Joint NGWF tight boxes initialised
... Tight-boxes gathered
... NGWF basis size (local,global):       6076     16232
... Conduction NGWF basis size (local,global):       9700     31280
... Joint NGWF basis size (local,global):      15644     46984
... Nonlocal pseudopotential projector initialisation
... done

========================== Sparse matrix information ===========================
                        Overlap matrix filling: 100.00%
                        Density kernel filling: 100.00%
              NGWF-Proj overlap matrix filling: 100.00%
                    Hamiltonian matrix filling: 100.00%
                  NGWF diagonal matrix filling:  25.00%
                             KS matrix filling: 100.00% 
                           KSKS matrix filling: 100.00% 
================================================================================

Sparse matrix initialisation ... done

Reading NGWFs from file "ethene_cond.tightbox_ngwfs" ...  done
============ Calculation of NGWF S^-1 using Hotelling algorithm ================ 
         Iteration  |  Frobenius norm and Maximum abs value    (of I-S*S_n^-1)   
               1       0.30107721E+01     0.95842757E+00
               2       0.28241825E+01     0.92597043E+00
               3       0.26515620E+01     0.87327243E+00
               4       0.24771022E+01     0.78983506E+00
               5       0.22764857E+01     0.73452909E+00
               6       0.20510007E+01     0.67801054E+00
               7       0.17826356E+01     0.58440392E+00
               8       0.14569616E+01     0.44423823E+00
               9       0.11184850E+01     0.40192261E+00
              10       0.84781168E+00     0.34609288E+00
              11       0.64358546E+00     0.27283616E+00
              12       0.41117410E+00     0.17461185E+00
              13       0.16905797E+00     0.71791271E-01
              14       0.28580597E-01     0.12136886E-01
              15       0.81685050E-03     0.34687943E-03
              16       0.66724474E-06     0.28334864E-06
              17       0.44554354E-12     0.18995916E-12
================================================================================

Reading density kernel from file "ethene_cond.dkn" ... done

===================== Conduction Sparse matrix information =====================
                        Overlap matrix filling: 100.00%
                        Density kernel filling: 100.00%
              NGWF-Proj overlap matrix filling: 100.00%
                    Hamiltonian matrix filling: 100.00%
              NGWF-COND overlap matrix filling: 100.00%
        Proj. Cond. Hamiltonian matrix filling: 100.00% 
                  NGWF diagonal matrix filling:  16.67%
                             KS matrix filling: 100.00% 
                           KSKS matrix filling: 100.00% 
================================================================================

Conduction NGWF sparse matrix initialisation ... done
Conduction NGWF initialisation ...... done
+------------------------------------------------------------------------------+
|                   Starting conduction NGWF optimisation                      |
+------------------------------------------------------------------------------+

Starting conduction NGWF pre-optimisation process

============ Calculation of NGWF S^-1 using Hotelling algorithm ================ 
         Iteration  |  Frobenius norm and Maximum abs value    (of I-S*S_n^-1)   
               1       0.46765558E+01     0.96250255E+00
               2       0.45043923E+01     0.92939175E+00
               3       0.42494253E+01     0.87251585E+00
               4       0.39144277E+01     0.78134934E+00
               5       0.35163192E+01     0.68749618E+00
               6       0.30929688E+01     0.67322475E+00
               7       0.27129524E+01     0.65825612E+00
               8       0.24256240E+01     0.64120593E+00
               9       0.21724654E+01     0.62082166E+00
              10       0.19095240E+01     0.58806471E+00
              11       0.16176338E+01     0.53220470E+00
              12       0.12608318E+01     0.44548736E+00
              13       0.84916851E+00     0.32553966E+00
              14       0.44597178E+00     0.18136477E+00
              15       0.13992435E+00     0.57462645E-01
              16       0.14867400E-01     0.59380441E-02
              17       0.18913460E-03     0.69436854E-04
              18       0.34554300E-07     0.11566997E-07
              19       0.68102893E-14     0.22204460E-14
================================================================================

Conduction Hamiltonian max eigenvalue, shift:    1.10876884487902    1.00000000000000

Conduction shift updated:        1.20876884487902
Generating conduction density kernel for     5 'occupied' orbitals
Up spin density kernel initialisation ... 
======= Optimisation of K by Palser-Manolopoulos canonical purification ======== 
         Iteration  |  Band structure energy |    c_n   
               1           2.09124068697445    0.3113628
               2           1.95902365220660    0.3264434
               3           1.80678454208865    0.3457804
               4           1.63651943667719    0.3679364
               5           1.45720629589827    0.3879460
               6           1.28806529279403    0.3996751
               7           1.15121220014902    0.3983285
               8           1.05617582846045    0.3635628
               9           1.00656746282158    0.3098117
              10           0.98860311176203    0.3237032
              11           0.97827124887741    0.3787569
              12           0.96924723223120    0.4386001
              13           0.96235192847242    0.4831122
              14           0.95790425292907    0.4986861
              15           0.95529151758975    0.4999921
              16           0.95436307393686    0.5000000
              17           0.95427580579219    0.5000000
              18           0.95427513482377    0.5000003
              19           0.95427513478463    0.5000003
Termination criterion satisfied: band energy change below threshold.
Final occupancy bounds: [    0.00000000000000:    1.00000000000000]
Closest occupancy to 0.5:     1.00000000000000
================================================================================
... done

Writing density kernel to file "ethene_cond.dkn_cond" ... done

Conduction Hamiltonian max eigenvalue, shift:    1.10876883628866    1.20876884487902

>>> Optimising kernel for current NGWFs:
   Initial electron number for spin 1:      10.00000000
     Final electron number for spin 1:      10.00000000

=================== Penalty functional idempotency correction ==================
 RMS occupancy error at iteration   1:  0.000000 (step -0.5000 Ne1=     10.0000)
            Final RMS occupancy error   :  0.000000 (Ne1=     10.0000)
               Final occupancy bounds   : [  0.0000,  1.0000]
================================================================================

................................................................................
<<<<<<<<<<<<<< LNV (Original version) density kernel optimisation >>>>>>>>>>>>>>
~~~~~~~~~~~~~~~~~~~~~~~~~~~~~~~~~~~~~~~~~~~~~~~~~~~~~~~~~~~~~~~~~~~~~~~~~~~~~~~~
   iter  |      energy (Eh)       | rms gradient |  commutator  |   dE (Eh)
      ideal mu1:       0.190855026957
    1         1.908550269569E+00      2.531E-15      1.097E-15

                 ..............................................
                 | RMS LNV GRADIENT=    0.00000000000000      |
                 | LNV density kernel optimisation converged! |
                 ~~~~~~~~~~~~~~~~~~~~~~~~~~~~~~~~~~~~~~~~~~~~~~

Writing density kernel to file "ethene_cond.dkn_cond" ... done


>>> Density kernel optimised for the current NGWF basis:
     ~~~~~~~~~~~~~~~~~~~~~~~~~~~~~~~~~~~~~~~~~~~~~~~~~~~~~~~~~~~
     Total energy                =   1.90855026956927E+00  Eh
     Estimated gap above Kc      =   3.4516E-02  Eh
     RMS occupancy error         =   1.9645E-16
     [H,K] commutator            =   2.5311E-15
     Occupancy bounds            = [  0.000:  1.000]
     ~~~~~~~~~~~~~~~~~~~~~~~~~~~~~~~~~~~~~~~~~~~~~~~~~~~~~~~~~~~




################################################################################
######################### COND NGWF CG iteration  001 ##########################
################################################################################
****** Reciprocal space K.E. preconditioning with k_zero =  3.0000 a0^-1 *******

>>> Checking for convergence of NGWFs:   NOT CONVERGED
  ========================================================================
         NGWF RMS gradient =  7.1348E-03 >  1.0000E-03  | above tolerance
  ========================================================================

>>> Improving NGWFs using line search:
============ Calculation of NGWF S^-1 using Hotelling algorithm ================ 
         Iteration  |  Frobenius norm and Maximum abs value    (of I-S*S_n^-1)   
               1       0.33361214E-01     0.75566805E-02
               2       0.33676079E-03     0.84336883E-04
               3       0.43894764E-07     0.11571343E-07
               4       0.92189957E-14     0.57731597E-14
================================================================================

Conduction Hamiltonian max eigenvalue, shift:    1.07257433505043    1.20876884487902
============ Calculation of NGWF S^-1 using Hotelling algorithm ================ 
         Iteration  |  Frobenius norm and Maximum abs value    (of I-S*S_n^-1)   
               1       0.91871187E-01     0.18072849E-01
               2       0.27986215E-02     0.57210885E-03
               3       0.28413153E-05     0.58629220E-06
               4       0.30720592E-11     0.64481753E-12
================================================================================

Conduction Hamiltonian max eigenvalue, shift:    1.01279724647659    1.20876884487902
------------------------------- NGWF line search -------------------------------
RMS gradient                =       0.00713480891637
Trial step length           =               0.122474
Gradient along search dir.  =         -2.56864053737
Functional at step 0        =       1.90855026956927
Functional at step 1        =       1.64862613932542
Functional predicted        =       1.45596712734129
Selected quadratic step     =               0.352391
Conjugate gradients coeff.  =               0.000000
--------------------------- NGWF line search finished --------------------------
                                               
Writing Conduction NGWFs to file "ethene_cond.tightbox_ngwfs_cond"....  done

>>> Optimising kernel for current NGWFs:
   Initial electron number for spin 1:      10.25273624
     Final electron number for spin 1:      10.00000000

=================== Penalty functional idempotency correction ==================
 RMS occupancy error at iteration   1:  0.011986 (step -0.4625 Ne1=     10.0000)
 RMS occupancy error at iteration   2:  0.000260 (step -0.4998 Ne1=     10.0000)
 RMS occupancy error at iteration   3:  0.000000 (step -0.5000 Ne1=     10.0000)
            Final RMS occupancy error   :  0.000000 (Ne1=     10.0000)
               Final occupancy bounds   : [  0.0000,  1.0000]
================================================================================

................................................................................
<<<<<<<<<<<<<< LNV (Original version) density kernel optimisation >>>>>>>>>>>>>>
~~~~~~~~~~~~~~~~~~~~~~~~~~~~~~~~~~~~~~~~~~~~~~~~~~~~~~~~~~~~~~~~~~~~~~~~~~~~~~~~
   iter  |      energy (Eh)       | rms gradient |  commutator  |   dE (Eh)
      ideal mu1:       0.145756325657
             Q0:       1.457563256574
             G0:      -0.053012869323
   RMS gradient:       0.009593551556
     Trial step:       0.500000000000
             Q1:       1.438056919555
 Quadratic coef:       0.007000097643
 Linear coef   :      -0.026506434662
           Qmin:       1.432471068066
Quadratic minimum step length (  0.946645176076) accepted
    Initial Ne1:      10.00000000
      Final Ne1:      10.00000000

=================== Penalty functional idempotency correction ==================
 RMS occupancy error at iteration   1:  0.003503 (step -0.4906 Ne1=     10.0000)
 RMS occupancy error at iteration   2:  0.000010 (step -0.5000 Ne1=     10.0000)
            Final RMS occupancy error   :  0.000000 (Ne1=     10.0000)
               Final occupancy bounds   : [  0.0000,  1.0000]
================================================================================

    1         1.457563256574E+00     9.5936E-03     2.3025E-02
      ideal mu1:       0.143229776253
             Q0:       1.432297762530
             G0:      -0.007778524063
   RMS gradient:       0.003651169272
     Trial step:       0.687984438805
             Q1:       1.429000282852
 Quadratic coef:       0.002054023834
 Linear coef   :      -0.005351503512
           Qmin:       1.428812093405
Quadratic minimum step length (  0.896228923808) accepted
    Initial Ne1:       9.99999997
      Final Ne1:      10.00000000

=================== Penalty functional idempotency correction ==================
 RMS occupancy error at iteration   1:  0.001468 (step -0.4955 Ne1=     10.0000)
 RMS occupancy error at iteration   2:  0.000004 (step -0.5000 Ne1=     10.0000)
            Final RMS occupancy error   :  0.000000 (Ne1=     10.0000)
               Final occupancy bounds   : [  0.0000,  1.0000]
================================================================================

    2         1.432297762530E+00     3.6512E-03     8.7628E-03    -2.5265E-02
      ideal mu1:       0.142875698241
             Q0:       1.428756982410
             G0:      -0.002379446491
   RMS gradient:       0.002012701027
     Trial step:       0.785233438658
             Q1:       1.427679111743
 Quadratic coef:       0.000790550283
 Linear coef   :      -0.001868420950
           Qmin:       1.427653005559
Quadratic minimum step length (  0.927927444292) accepted
    Initial Ne1:       9.99999998
      Final Ne1:      10.00000000

=================== Penalty functional idempotency correction ==================
 RMS occupancy error at iteration   1:  0.000898 (step -0.4965 Ne1=     10.0000)
 RMS occupancy error at iteration   2:  0.000002 (step -0.5000 Ne1=     10.0000)
            Final RMS occupancy error   :  0.000000 (Ne1=     10.0000)
               Final occupancy bounds   : [  0.0000,  1.0000]
================================================================================

    3         1.428756982410E+00     2.0127E-03     4.8305E-03    -3.5408E-03
      ideal mu1:       0.142763732993
             Q0:       1.427637329934
             G0:      -0.000310825526
   RMS gradient:       0.000728375510
     Trial step:       0.853603923320
             Q1:       1.427476163875
 Quadratic coef:       0.000104155829
 Linear coef   :      -0.000265321888
           Qmin:       1.427468362664
Quadratic minimum step length (  1.087216179812) accepted
    Initial Ne1:       9.99999999
      Final Ne1:      10.00000000

=================== Penalty functional idempotency correction ==================
 RMS occupancy error at iteration   1:  0.000211 (step -0.4991 Ne1=     10.0000)
            Final RMS occupancy error   :  0.000000 (Ne1=     10.0000)
               Final occupancy bounds   : [ -0.0000,  1.0000]
================================================================================

    4         1.427637329934E+00     7.2838E-04     1.7481E-03    -1.1197E-03
      ideal mu1:       0.142746761904
    5         1.427467619045E+00     2.9860E-04     7.1664E-04    -1.6971E-04
Finished density kernel iterations (   5)

Writing density kernel to file "ethene_cond.dkn_cond" ... done


>>> Density kernel optimised for the current NGWF basis:
     ~~~~~~~~~~~~~~~~~~~~~~~~~~~~~~~~~~~~~~~~~~~~~~~~~~~~~~~~~~~
     Total energy                =   1.42746761904466E+00  Eh
     Estimated gap above Kc      =   8.0414E-02  Eh
     RMS occupancy error         =   1.2063E-07
     [H,K] commutator            =   7.1664E-04
     Occupancy bounds            = [ -0.000:  1.000]
     ~~~~~~~~~~~~~~~~~~~~~~~~~~~~~~~~~~~~~~~~~~~~~~~~~~~~~~~~~~~




################################################################################
######################### COND NGWF CG iteration  002 ##########################
################################################################################
****** Reciprocal space K.E. preconditioning with k_zero =  3.0000 a0^-1 *******

>>> Checking for convergence of NGWFs:   NOT CONVERGED
  ========================================================================
         NGWF RMS gradient =  3.8831E-03 >  1.0000E-03  | above tolerance
  ========================================================================

>>> Improving NGWFs using line search:
============ Calculation of NGWF S^-1 using Hotelling algorithm ================ 
         Iteration  |  Frobenius norm and Maximum abs value    (of I-S*S_n^-1)   
               1       0.61924742E-01     0.12793784E-01
               2       0.12283127E-02     0.25847977E-03
               3       0.62500163E-06     0.11247036E-06
               4       0.20660172E-12     0.32418512E-13
================================================================================

Conduction Hamiltonian max eigenvalue, shift:    0.95749045366301    1.20876884487902
============ Calculation of NGWF S^-1 using Hotelling algorithm ================ 
         Iteration  |  Frobenius norm and Maximum abs value    (of I-S*S_n^-1)   
               1       0.21114786E+00     0.40104947E-01
               2       0.15349687E-01     0.26707749E-02
               3       0.10632124E-03     0.18068197E-04
               4       0.73868989E-08     0.11727275E-08
               5       0.55611855E-14     0.13322676E-14
================================================================================

Conduction Hamiltonian max eigenvalue, shift:    0.86466199890217    1.20876884487902
------------------------------- NGWF line search -------------------------------
RMS gradient                =       0.00388313887528
Trial step length           =               0.207747
Gradient along search dir.  =         -0.80001586120
Functional at step 0        =       1.42746761904466
Functional at step 1        =       1.28633486899925
Functional predicted        =       1.15199281865441
Selected quadratic step     =               0.688673
Conjugate gradients coeff.  =               0.296211
--------------------------- NGWF line search finished --------------------------
                                               
Writing Conduction NGWFs to file "ethene_cond.tightbox_ngwfs_cond"....  done

>>> Optimising kernel for current NGWFs:
   Initial electron number for spin 1:      10.58810571
     Final electron number for spin 1:      10.00000000

=================== Penalty functional idempotency correction ==================
 RMS occupancy error at iteration   1:  0.029424 (step -0.4159 Ne1=     10.0000)
 RMS occupancy error at iteration   2:  0.001307 (step -0.4987 Ne1=     10.0000)
 RMS occupancy error at iteration   3:  0.000012 (step -0.5000 Ne1=     10.0000)
            Final RMS occupancy error   :  0.000000 (Ne1=     10.0000)
               Final occupancy bounds   : [  0.0000,  1.0000]
================================================================================

................................................................................
<<<<<<<<<<<<<< LNV (Original version) density kernel optimisation >>>>>>>>>>>>>>
~~~~~~~~~~~~~~~~~~~~~~~~~~~~~~~~~~~~~~~~~~~~~~~~~~~~~~~~~~~~~~~~~~~~~~~~~~~~~~~~
   iter  |      energy (Eh)       | rms gradient |  commutator  |   dE (Eh)
      ideal mu1:       0.115197719920
             Q0:       1.151977199197
             G0:      -0.066196836469
   RMS gradient:       0.010720310784
     Trial step:       0.963354553933
             Q1:       1.120841913586
 Quadratic coef:       0.032635738258
 Linear coef   :      -0.063771023869
           Qmin:       1.120824667476
Quadratic minimum step length (  0.941209078340) accepted
    Initial Ne1:       9.99999990
      Final Ne1:      10.00000000

=================== Penalty functional idempotency correction ==================
 RMS occupancy error at iteration   1:  0.004352 (step -0.4874 Ne1=     10.0000)
 RMS occupancy error at iteration   2:  0.000023 (step -0.5000 Ne1=     10.0000)
            Final RMS occupancy error   :  0.000000 (Ne1=     10.0000)
               Final occupancy bounds   : [  0.0000,  1.0000]
================================================================================

    1         1.151977199197E+00     1.0720E-02     2.5729E-02
      ideal mu1:       0.112009155858
             Q0:       1.120091558582
             G0:      -0.005434032176
   RMS gradient:       0.003025018301
     Trial step:       0.952217439360
             Q1:       1.117228038707
 Quadratic coef:       0.002310860329
 Linear coef   :      -0.005174380204
           Qmin:       1.117194995540
Quadratic minimum step length (  1.066082403743) accepted
    Initial Ne1:       9.99999979
      Final Ne1:      10.00000000

=================== Penalty functional idempotency correction ==================
 RMS occupancy error at iteration   1:  0.001232 (step -0.4959 Ne1=     10.0000)
 RMS occupancy error at iteration   2:  0.000004 (step -0.5000 Ne1=     10.0000)
            Final RMS occupancy error   :  0.000000 (Ne1=     10.0000)
               Final occupancy bounds   : [  0.0000,  1.0000]
================================================================================

    2         1.120091558582E+00     3.0250E-03     7.2600E-03    -3.1886E-02
      ideal mu1:       0.111716113645
             Q0:       1.117161136451
             G0:      -0.001926620391
   RMS gradient:       0.001815270742
     Trial step:       1.007542682291
             Q1:       1.116364403421
 Quadratic coef:       0.001144419246
 Linear coef   :      -0.001941152276
           Qmin:       1.116337995768
Quadratic minimum step length (  0.854491821071) accepted
    Initial Ne1:       9.99999993
      Final Ne1:      10.00000000

=================== Penalty functional idempotency correction ==================
 RMS occupancy error at iteration   1:  0.000676 (step -0.4974 Ne1=     10.0000)
 RMS occupancy error at iteration   2:  0.000001 (step -0.5000 Ne1=     10.0000)
            Final RMS occupancy error   :  0.000000 (Ne1=     10.0000)
               Final occupancy bounds   : [  0.0000,  1.0000]
================================================================================

    3         1.117161136451E+00     1.8153E-03     4.3566E-03    -2.9304E-03
      ideal mu1:       0.111632983547
             Q0:       1.116329835466
             G0:      -0.000443797267
   RMS gradient:       0.000872666936
     Trial step:       0.927866898536
             Q1:       1.116110729427
 Quadratic coef:       0.000192678755
 Linear coef   :      -0.000411784794
           Qmin:       1.116109823254
Quadratic minimum step length (  0.991498722933) accepted
    Initial Ne1:       9.99999998
      Final Ne1:      10.00000000

=================== Penalty functional idempotency correction ==================
 RMS occupancy error at iteration   1:  0.000274 (step -0.4988 Ne1=     10.0000)
 RMS occupancy error at iteration   2:  0.000000 (step -0.5000 Ne1=     10.0000)
            Final RMS occupancy error   :  0.000000 (Ne1=     10.0000)
               Final occupancy bounds   : [  0.0000,  1.0000]
================================================================================

    4         1.116329835466E+00     8.7267E-04     2.0944E-03    -8.3130E-04
      ideal mu1:       0.111610882394
    5         1.116108823937E+00     3.2839E-04     7.8814E-04    -2.2101E-04
Finished density kernel iterations (   5)

Writing density kernel to file "ethene_cond.dkn_cond" ... done


>>> Density kernel optimised for the current NGWF basis:
     ~~~~~~~~~~~~~~~~~~~~~~~~~~~~~~~~~~~~~~~~~~~~~~~~~~~~~~~~~~~
     Total energy                =   1.11610882393713E+00  Eh
     Estimated gap above Kc      =   8.1848E-02  Eh
     RMS occupancy error         =   3.0502E-13
     [H,K] commutator            =   7.8814E-04
     Occupancy bounds            = [  0.000:  1.000]
     ~~~~~~~~~~~~~~~~~~~~~~~~~~~~~~~~~~~~~~~~~~~~~~~~~~~~~~~~~~~

WARNING: maximum number of NGWF CG iterations (   2) exceeded!

                        <<<<< CALCULATION SUMMARY >>>>>                         
|ITER|    RMS GRADIENT   |     TOTAL ENERGY    |   step   |     Epredicted      
   0     0.00713480891637      1.90855026956927   0.352391      1.45596712734129
   1     0.00388313887528      1.11610882393713  <-- CG                         
 
<QC>        [NGWF iterations]:                      2
<QC>           [total_energy]:         1.116108823937
<QC>           [rms_gradient]:         0.003883138875

Conduction NGWF pre-optimisation process complete.
Proceeding with the main conduction NGWF optimisation process.

============ Calculation of NGWF S^-1 using Hotelling algorithm ================ 
         Iteration  |  Frobenius norm and Maximum abs value    (of I-S*S_n^-1)   
               1       0.55611855E-14     0.13322676E-14
================================================================================

Conduction Hamiltonian max eigenvalue, shift:    0.86466190517033    1.00000000000000
Generating conduction density kernel for     3 'occupied' orbitals
Up spin density kernel initialisation ... 
======= Optimisation of K by Palser-Manolopoulos canonical purification ======== 
         Iteration  |  Band structure energy |    c_n   
               1           0.94164312332123    0.1909968
               2           0.90022706470574    0.1978887
               3           0.85405522593043    0.2066181
               4           0.80233024641024    0.2178174
               5           0.74410365003336    0.2323511
               6           0.67834158518916    0.2513269
               7           0.60419245562632    0.2759141
               8           0.52175506542386    0.3066050
               9           0.43385002730778    0.3416867
              10           0.34873107781996    0.3780762
              11           0.27955828869268    0.4245230
              12           0.23329817873294    0.4999290
              13           0.20720682964392    0.5730711
              14           0.20236335688707    0.5552111
              15           0.20007526198360    0.5199182
              16           0.19827849013928    0.5024541
              17           0.19663055717641    0.5000364
              18           0.19513839123523    0.5000000
              19           0.19431089994792    0.5000000
              20           0.19414487457271    0.5000000
              21           0.19413967376359    0.5000000
              22           0.19413966892036    0.4996670
              23           0.19413966892036    0.4996670
Termination criterion satisfied: band energy change below threshold.
Final occupancy bounds: [    0.00000000000000:    1.00000000000000]
Closest occupancy to 0.5:     1.00000000000000
================================================================================
... done

Writing density kernel to file "ethene_cond.dkn_cond" ... done

Conduction Hamiltonian max eigenvalue, shift:    0.86466200349720    1.00000000000000

>>> Optimising kernel for current NGWFs:
   Initial electron number for spin 1:       6.00000000
     Final electron number for spin 1:       6.00000000

=================== Penalty functional idempotency correction ==================
 RMS occupancy error at iteration   1:  0.000000 (step -0.5000 Ne1=      6.0000)
            Final RMS occupancy error   :  0.000000 (Ne1=      6.0000)
               Final occupancy bounds   : [  0.0000,  1.0000]
================================================================================

................................................................................
<<<<<<<<<<<<<< LNV (Original version) density kernel optimisation >>>>>>>>>>>>>>
~~~~~~~~~~~~~~~~~~~~~~~~~~~~~~~~~~~~~~~~~~~~~~~~~~~~~~~~~~~~~~~~~~~~~~~~~~~~~~~~
   iter  |      energy (Eh)       | rms gradient |  commutator  |   dE (Eh)
      ideal mu1:       0.064713222973
    1         3.882793378407E-01      3.285E-15      7.265E-16

                 ..............................................
                 | RMS LNV GRADIENT=    0.00000000000000      |
                 | LNV density kernel optimisation converged! |
                 ~~~~~~~~~~~~~~~~~~~~~~~~~~~~~~~~~~~~~~~~~~~~~~

Writing density kernel to file "ethene_cond.dkn_cond" ... done


>>> Density kernel optimised for the current NGWF basis:
     ~~~~~~~~~~~~~~~~~~~~~~~~~~~~~~~~~~~~~~~~~~~~~~~~~~~~~~~~~~~
     Total energy                =   3.88279337840710E-01  Eh
     Estimated gap above Kc      =   1.6782E-02  Eh
     RMS occupancy error         =   1.4241E-16
     [H,K] commutator            =   3.2855E-15
     Occupancy bounds            = [  0.000:  1.000]
     ~~~~~~~~~~~~~~~~~~~~~~~~~~~~~~~~~~~~~~~~~~~~~~~~~~~~~~~~~~~




################################################################################
######################### COND NGWF CG iteration  001 ##########################
################################################################################
****** Reciprocal space K.E. preconditioning with k_zero =  3.0000 a0^-1 *******

>>> Checking for convergence of NGWFs:   NOT CONVERGED
  ========================================================================
         NGWF RMS gradient =  2.4815E-03 >  1.0000E-03  | above tolerance
  ========================================================================

>>> Improving NGWFs using line search:
============ Calculation of NGWF S^-1 using Hotelling algorithm ================ 
         Iteration  |  Frobenius norm and Maximum abs value    (of I-S*S_n^-1)   
               1       0.16656812E-01     0.23770106E-02
               2       0.75491268E-04     0.11994707E-04
               3       0.21056162E-08     0.32037950E-09
               4       0.74819195E-14     0.26645353E-14
================================================================================

Conduction Hamiltonian max eigenvalue, shift:    0.85152776521979    1.00000000000000
============ Calculation of NGWF S^-1 using Hotelling algorithm ================ 
         Iteration  |  Frobenius norm and Maximum abs value    (of I-S*S_n^-1)   
               1       0.30735637E-01     0.46565954E-02
               2       0.29489980E-03     0.48022381E-04
               3       0.33128685E-07     0.51328173E-08
               4       0.90285321E-14     0.53290705E-14
================================================================================

Conduction Hamiltonian max eigenvalue, shift:    0.83089996527941    1.00000000000000
------------------------------- NGWF line search -------------------------------
RMS gradient                =       0.00248148855616
Trial step length           =               0.122474
Gradient along search dir.  =         -0.31071569624
Functional at step 0        =       0.38827933784071
Functional at step 1        =       0.35733503852636
Functional predicted        =       0.33736257355605
Selected quadratic step     =               0.327739
Conjugate gradients coeff.  =               0.000000
--------------------------- NGWF line search finished --------------------------
                                               
Writing Conduction NGWFs to file "ethene_cond.tightbox_ngwfs_cond"....  done

>>> Optimising kernel for current NGWFs:
   Initial electron number for spin 1:       6.01479540
     Final electron number for spin 1:       6.00000000

=================== Penalty functional idempotency correction ==================
 RMS occupancy error at iteration   1:  0.001582 (step -0.4894 Ne1=      6.0000)
 RMS occupancy error at iteration   2:  0.000003 (step -0.5000 Ne1=      6.0000)
            Final RMS occupancy error   :  0.000000 (Ne1=      6.0000)
               Final occupancy bounds   : [  0.0000,  1.0000]
================================================================================

................................................................................
<<<<<<<<<<<<<< LNV (Original version) density kernel optimisation >>>>>>>>>>>>>>
~~~~~~~~~~~~~~~~~~~~~~~~~~~~~~~~~~~~~~~~~~~~~~~~~~~~~~~~~~~~~~~~~~~~~~~~~~~~~~~~
   iter  |      energy (Eh)       | rms gradient |  commutator  |   dE (Eh)
      ideal mu1:       0.056238745312
             Q0:       0.337432471874
             G0:      -0.001159272117
   RMS gradient:       0.001418670224
     Trial step:       0.959155276767
             Q1:       0.336781879571
 Quadratic coef:       0.000461329665
 Linear coef   :      -0.001111921969
           Qmin:       0.336762468101
Quadratic minimum step length (  1.155904230982) accepted
    Initial Ne1:       5.99999999
      Final Ne1:       6.00000000

=================== Penalty functional idempotency correction ==================
 RMS occupancy error at iteration   1:  0.000150 (step -0.4994 Ne1=      6.0000)
            Final RMS occupancy error   :  0.000000 (Ne1=      6.0000)
               Final occupancy bounds   : [  0.0000,  1.0000]
================================================================================

    1         3.374324718740E-01     1.4187E-03     5.6747E-03
      ideal mu1:       0.056126986459
             Q0:       0.336761918753
             G0:      -0.000124399136
   RMS gradient:       0.000464454329
     Trial step:       1.052944273257
             Q1:       0.336692356270
 Quadratic coef:       0.000061422875
 Linear coef   :      -0.000130985358
           Qmin:       0.336692086610
Quadratic minimum step length (  1.122711056262) accepted
    Initial Ne1:       6.00000032
      Final Ne1:       6.00000000

=================== Penalty functional idempotency correction ==================
 RMS occupancy error at iteration   1:  0.000047 (step -0.4998 Ne1=      6.0000)
            Final RMS occupancy error   :  0.000000 (Ne1=      6.0000)
               Final occupancy bounds   : [ -0.0000,  1.0000]
================================================================================

    2         3.367619187526E-01     4.6445E-04     1.8578E-03    -6.7055E-04
      ideal mu1:       0.056115339886
             Q0:       0.336692039319
             G0:      -0.000035593240
   RMS gradient:       0.000248480153
     Trial step:       1.087268217697
             Q1:       0.336679425951
 Quadratic coef:       0.000026086031
 Linear coef   :      -0.000038699399
           Qmin:       0.336677686393
Quadratic minimum step length (  0.806497296727) accepted
    Initial Ne1:       6.00000012
      Final Ne1:       6.00000000

=================== Penalty functional idempotency correction ==================
 RMS occupancy error at iteration   1:  0.000016 (step -0.4999 Ne1=      6.0000)
            Final RMS occupancy error   :  0.000000 (Ne1=      6.0000)
               Final occupancy bounds   : [ -0.0000,  1.0000]
================================================================================

    3         3.366920393188E-01     2.4848E-04     9.9392E-04    -6.9879E-05
      ideal mu1:       0.056112946933
             Q0:       0.336677681598
             G0:      -0.000001271909
   RMS gradient:       0.000046982230
     Trial step:       0.936418110883
             Q1:       0.336676769607
 Quadratic coef:       0.000000279048
 Linear coef   :      -0.000001191039
           Qmin:       0.336676410692
Quadratic minimum step length (  1.998422450124) accepted
    Initial Ne1:       6.00000005
      Final Ne1:       6.00000000

=================== Penalty functional idempotency correction ==================
 RMS occupancy error at iteration   1:  0.000002 (step -0.5000 Ne1=      6.0000)
            Final RMS occupancy error   :  0.000000 (Ne1=      6.0000)
               Final occupancy bounds   : [  0.0000,  1.0000]
================================================================================

    4         3.366776815979E-01     4.6982E-05     1.8793E-04    -1.4358E-05
      ideal mu1:       0.056112735106
    5         3.366764106360E-01     5.7083E-05     2.2833E-04    -1.2710E-06
Finished density kernel iterations (   5)

Writing density kernel to file "ethene_cond.dkn_cond" ... done


>>> Density kernel optimised for the current NGWF basis:
     ~~~~~~~~~~~~~~~~~~~~~~~~~~~~~~~~~~~~~~~~~~~~~~~~~~~~~~~~~~~
     Total energy                =   3.36676410636008E-01  Eh
     Estimated gap above Kc      =   2.0806E-02  Eh
     RMS occupancy error         =   4.2105E-11
     [H,K] commutator            =   2.2833E-04
     Occupancy bounds            = [  0.000:  1.000]
     ~~~~~~~~~~~~~~~~~~~~~~~~~~~~~~~~~~~~~~~~~~~~~~~~~~~~~~~~~~~




################################################################################
######################### COND NGWF CG iteration  002 ##########################
################################################################################
****** Reciprocal space K.E. preconditioning with k_zero =  3.0000 a0^-1 *******

>>> Checking for convergence of NGWFs:   NOT CONVERGED
  ========================================================================
         NGWF RMS gradient =  1.2019E-03 >  1.0000E-03  | above tolerance
  ========================================================================

>>> Improving NGWFs using line search:
============ Calculation of NGWF S^-1 using Hotelling algorithm ================ 
         Iteration  |  Frobenius norm and Maximum abs value    (of I-S*S_n^-1)   
               1       0.34775569E-01     0.46838547E-02
               2       0.35216109E-03     0.47917026E-04
               3       0.46594707E-07     0.53844456E-08
               4       0.57172973E-14     0.17763568E-14
================================================================================

Conduction Hamiltonian max eigenvalue, shift:    0.80905202187582    1.00000000000000
============ Calculation of NGWF S^-1 using Hotelling algorithm ================ 
         Iteration  |  Frobenius norm and Maximum abs value    (of I-S*S_n^-1)   
               1       0.52558911E-01     0.79097608E-02
               2       0.87705555E-03     0.13002383E-03
               3       0.28514031E-06     0.35822641E-07
               4       0.31470892E-13     0.37747583E-14
================================================================================

Conduction Hamiltonian max eigenvalue, shift:    0.78438354625368    1.00000000000000
------------------------------- NGWF line search -------------------------------
RMS gradient                =       0.00120190354160
Trial step length           =               0.200349
Gradient along search dir.  =         -0.07365728401
Functional at step 0        =       0.33667641063601
Functional at step 1        =       0.32512010318899
Functional predicted        =       0.31966731825471
Selected quadratic step     =               0.461844
Conjugate gradients coeff.  =               0.234593
--------------------------- NGWF line search finished --------------------------
                                               
Writing Conduction NGWFs to file "ethene_cond.tightbox_ngwfs_cond"....  done

>>> Optimising kernel for current NGWFs:
   Initial electron number for spin 1:       6.01088084
     Final electron number for spin 1:       6.00000000

=================== Penalty functional idempotency correction ==================
 RMS occupancy error at iteration   1:  0.001566 (step -0.4906 Ne1=      6.0000)
 RMS occupancy error at iteration   2:  0.000010 (step -0.5000 Ne1=      6.0000)
            Final RMS occupancy error   :  0.000000 (Ne1=      6.0000)
               Final occupancy bounds   : [  0.0000,  1.0000]
================================================================================

................................................................................
<<<<<<<<<<<<<< LNV (Original version) density kernel optimisation >>>>>>>>>>>>>>
~~~~~~~~~~~~~~~~~~~~~~~~~~~~~~~~~~~~~~~~~~~~~~~~~~~~~~~~~~~~~~~~~~~~~~~~~~~~~~~~
   iter  |      energy (Eh)       | rms gradient |  commutator  |   dE (Eh)
      ideal mu1:       0.053280734844
             Q0:       0.319684409061
             G0:      -0.001887323798
   RMS gradient:       0.001810139170
     Trial step:       1.367976233526
             Q1:       0.318645279449
 Quadratic coef:       0.001542684488
 Linear coef   :      -0.002581814100
           Qmin:       0.318604187522
Quadratic minimum step length (  1.144712465828) accepted
    Initial Ne1:       5.99999989
      Final Ne1:       6.00000000

=================== Penalty functional idempotency correction ==================
 RMS occupancy error at iteration   1:  0.000249 (step -0.4989 Ne1=      6.0000)
            Final RMS occupancy error   :  0.000000 (Ne1=      6.0000)
               Final occupancy bounds   : [  0.0000,  1.0000]
================================================================================

    1         3.196844090614E-01     1.8101E-03     7.2406E-03
      ideal mu1:       0.053100276196
             Q0:       0.318601657174
             G0:      -0.000199508464
   RMS gradient:       0.000587660222
     Trial step:       1.251375022715
             Q1:       0.318531367360
 Quadratic coef:       0.000179370095
 Linear coef   :      -0.000249659909
           Qmin:       0.318514783620
Quadratic minimum step length (  0.870875870828) accepted
    Initial Ne1:       6.00000323
      Final Ne1:       6.00000000

=================== Penalty functional idempotency correction ==================
 RMS occupancy error at iteration   1:  0.000050 (step -0.4998 Ne1=      6.0000)
            Final RMS occupancy error   :  0.000000 (Ne1=      6.0000)
               Final occupancy bounds   : [ -0.0000,  1.0000]
================================================================================

    2         3.186016571743E-01     5.8766E-04     2.3506E-03    -1.0828E-03
      ideal mu1:       0.053085786974
             Q0:       0.318514721844
             G0:      -0.000054955746
   RMS gradient:       0.000308753593
     Trial step:       1.043931181946
             Q1:       0.318482171238
 Quadratic coef:       0.000024819411
 Linear coef   :      -0.000057370016
           Qmin:       0.318481569176
Quadratic minimum step length (  1.206522385196) accepted
    Initial Ne1:       6.00000132
      Final Ne1:       6.00000000

=================== Penalty functional idempotency correction ==================
 RMS occupancy error at iteration   1:  0.000033 (step -0.4999 Ne1=      6.0000)
            Final RMS occupancy error   :  0.000000 (Ne1=      6.0000)
               Final occupancy bounds   : [ -0.0000,  1.0000]
================================================================================

    3         3.185147218443E-01     3.0875E-04     1.2350E-03    -8.6935E-05
      ideal mu1:       0.053080258205
             Q0:       0.318481549230
             G0:      -0.000001086912
   RMS gradient:       0.000043424246
     Trial step:       1.122286211099
             Q1:       0.318480904097
 Quadratic coef:       0.000000574694
 Linear coef   :      -0.000001219827
           Qmin:       0.318480901939
Quadratic minimum step length (  1.191064535712) accepted
    Initial Ne1:       6.00000003
      Final Ne1:       6.00000000

=================== Penalty functional idempotency correction ==================
 RMS occupancy error at iteration   1:  0.000001 (step -0.5000 Ne1=      6.0000)
            Final RMS occupancy error   :  0.000000 (Ne1=      6.0000)
               Final occupancy bounds   : [  0.0000,  1.0000]
================================================================================

    4         3.184815492302E-01     4.3424E-05     1.7370E-04    -3.3173E-05
      ideal mu1:       0.053080150321
    5         3.184809019257E-01     3.2971E-05     1.3189E-04    -6.4730E-07
Finished density kernel iterations (   5)

Writing density kernel to file "ethene_cond.dkn_cond" ... done


>>> Density kernel optimised for the current NGWF basis:
     ~~~~~~~~~~~~~~~~~~~~~~~~~~~~~~~~~~~~~~~~~~~~~~~~~~~~~~~~~~~
     Total energy                =   3.18480901925749E-01  Eh
     Estimated gap above Kc      =   1.8906E-02  Eh
     RMS occupancy error         =   6.7742E-12
     [H,K] commutator            =   1.3189E-04
     Occupancy bounds            = [  0.000:  1.000]
     ~~~~~~~~~~~~~~~~~~~~~~~~~~~~~~~~~~~~~~~~~~~~~~~~~~~~~~~~~~~




################################################################################
######################### COND NGWF CG iteration  003 ##########################
################################################################################
****** Reciprocal space K.E. preconditioning with k_zero =  3.0000 a0^-1 *******

>>> Checking for convergence of NGWFs: 
           ........................................................
           |         *** NGWF optimisation converged ***          |
           | RMS NGWF gradient =    0.00097141093777              |
           | Criteria satisfied:                                  |
           | -> RMS NGWF gradient lower than set threshold.       |
           ========================================================

                        <<<<< CALCULATION SUMMARY >>>>>                         
|ITER|    RMS GRADIENT   |     TOTAL ENERGY    |   step   |     Epredicted      
   0     0.00248148855616      0.38827933784071   0.327739      0.33736257355605
   1     0.00120190354160      0.33667641063601   0.461844      0.31966731825471
   2     0.00097141093777      0.31848090192575  <-- CG                         
 
<QC>        [NGWF iterations]:                      3
<QC>           [total_energy]:         0.318480901926
<QC>           [rms_gradient]:         0.000971410938
+------------------------------------------------------------------------------+
|                    Conduction NGWF optimisation complete                     |
+------------------------------------------------------------------------------+
 
+------------------------------------------------------------------------------+
|               Starting conduction properties calculation                     |
+------------------------------------------------------------------------------+



=========================== Valence diagonalisation ============================

=================== Orbital energy and occupancy information ===================

      Total number of orbitals:      12
   Number of occupied orbitals:       6
                 Occupancy sum:       6.000000000
                 HOMO-LUMO gap:       0.246665174 Eh
                 Mid-gap level:      -0.110412477 Eh

                        Orbital | Energy (Eh) | Occupancy
                            1    -0.690140649   1.0000000
                            2    -0.505866099   1.0000000
                            3    -0.405063761   1.0000000
                            4    -0.361230283   1.0000000
                            5    -0.287032950   1.0000000
                            6    -0.233745063   1.0000000
                        .......   --- gap ---   .........
                            7     0.012920110   0.0000000
                            8     0.177693857   0.0000000
                            9     0.187356500   0.0000000
                           10     0.212777536   0.0000000
                           11     0.395555599   0.0000000
                           12     0.561226419   0.0000000
 
<QC>    [energy_eigenvalue_1]:        -0.690140648903
<QC>    [energy_eigenvalue_n]:         0.561226419182
<QC>            [occupancy_1]:         0.999999999993
<QC>            [occupancy_n]:         0.000000000026

================================================================================

================== Local Density of States (LDOS) calculation ==================
Writing "ethene_cond_valence_LDOS.txt" ...  done
================================================================================
================== Joint density of States (JDOS) calculation ==================
Writing "ethene_cond_val_JDOS.txt" ...  done
================================================================================
================ Imaginary component of the dielectric function ================
Writing "ethene_cond_val_OPT_SPEC.txt" ...  done
================================================================================

================ Writing optical matrix elements ================
Writing "ethene_cond_val_OPT_MAT_ELS.txt" ...  done
================================================================================

 
===================== Density of States (DOS) calculation ======================
Writing "ethene_cond_valence_DOS.txt" ...  done
================================================================================
 
Writing bands to file "ethene_cond.val_bands" ... done
 
================ Projected Density of States (pDOS) calculation ================
 
Constructing SW functions  ...  done
 
Performing overlap integrals ...  done
<QC>     [lcao_overlap_trace]:        51.019555410106
<QC> [inv_lcao_overlap_trace]:       134.024890566973
 
Computing pDOS weights ...  done
<QC>   [lcao_ngwf_lcao_trace]:        21.214075817455
 
 => Outputting data for OptaDOS <=
 
Writing pDOS weights to file "ethene_cond.val_pdos_bin" ... done
 
Writing band gradients to file "ethene_cond.val_dome_bin" ... done
 
Writing Castep output cell file to "ethene_cond-out.cell" ... done
 
 => Computing Gaussian smeared pDOS <= 
Writing "ethene_cond_valence_PDOS.txt" ...  done
<QC>   [pdoswts(l=0,eig_i=1)]:         0.261813240243
<QC>   [pdoswts(l=1,eig_i=1)]:         0.150682190305
<QC>   [pdoswts(l=2,eig_i=1)]:         0.054954741049
<QC>   [pdoswts(l=3,eig_i=1)]:         0.296918382119
<QC>   [pdoswts(l=4,eig_i=1)]:         0.158087683407
<QC>   [pdoswts(l=5,eig_i=1)]:         0.077543762878
<QC>   [pdoswts(l=0,eig_i=2)]:         0.090398970202
<QC>   [pdoswts(l=1,eig_i=2)]:         0.278148476172
<QC>   [pdoswts(l=2,eig_i=2)]:         0.043808808645
<QC>   [pdoswts(l=3,eig_i=2)]:         0.407030040801
<QC>   [pdoswts(l=4,eig_i=2)]:         0.122005266098
<QC>   [pdoswts(l=5,eig_i=2)]:         0.058608438081
<QC>   [pdoswts(l=0,eig_i=3)]:         0.000000000000
<QC>   [pdoswts(l=1,eig_i=3)]:         0.645535331966
<QC>   [pdoswts(l=2,eig_i=3)]:         0.000000000000
<QC>   [pdoswts(l=3,eig_i=3)]:         0.316685211116
<QC>   [pdoswts(l=4,eig_i=3)]:         0.022278793115
<QC>   [pdoswts(l=5,eig_i=3)]:         0.015500663802
<QC>   [pdoswts(l=0,eig_i=4)]:         0.000000000000
<QC>   [pdoswts(l=1,eig_i=4)]:         0.669120327775
<QC>   [pdoswts(l=2,eig_i=4)]:         0.006965336764
<QC>   [pdoswts(l=3,eig_i=4)]:         0.250637085783
<QC>   [pdoswts(l=4,eig_i=4)]:         0.032731519507
<QC>   [pdoswts(l=5,eig_i=4)]:         0.040545730171
<QC>   [pdoswts(l=0,eig_i=5)]:         0.000000000000
<QC>   [pdoswts(l=1,eig_i=5)]:         0.438278978100
<QC>   [pdoswts(l=2,eig_i=5)]:         0.114118003606
<QC>   [pdoswts(l=3,eig_i=5)]:         0.444624919156
<QC>   [pdoswts(l=4,eig_i=5)]:         0.000000000000
<QC>   [pdoswts(l=5,eig_i=5)]:         0.002978099138
[...]
               6       0.48112860E+01     0.90964493E+00
               7       0.45421691E+01     0.89515815E+00
               8       0.43110684E+01     0.88414744E+00
               9       0.41358794E+01     0.87227983E+00
              10       0.39832190E+01     0.85731738E+00
              11       0.38370442E+01     0.83651164E+00
              12       0.36943694E+01     0.81321206E+00
              13       0.35657176E+01     0.79630824E+00
              14       0.34842068E+01     0.78711472E+00
              15       0.34529607E+01     0.77997709E+00
              16       0.34371992E+01     0.77416519E+00
              17       0.34109661E+01     0.76711416E+00
              18       0.33606225E+01     0.75396285E+00
              19       0.32676265E+01     0.72903188E+00
              20       0.31081979E+01     0.68509982E+00
              21       0.28692479E+01     0.63630429E+00
              22       0.25795869E+01     0.55652283E+00
              23       0.23051668E+01     0.44796384E+00
              24       0.20573662E+01     0.38441814E+00
              25       0.17470554E+01     0.36565362E+00
              26       0.13503435E+01     0.35914718E+00
              27       0.10335193E+01     0.34908258E+00
              28       0.91549211E+00     0.33242237E+00
              29       0.83273467E+00     0.30316707E+00
              30       0.69343915E+00     0.25245200E+00
              31       0.48085786E+00     0.17506010E+00
              32       0.23122428E+00     0.84179025E-01
              33       0.53464668E-01     0.19464235E-01
              34       0.28584708E-02     0.10406488E-02
              35       0.81708552E-05     0.29746644E-05
              36       0.66758620E-10     0.24591884E-10
              37       0.10747274E-11     0.53290705E-12
================================================================================



================= Joint valence and conduction diagonalisation =================

=================== Orbital energy and occupancy information ===================

      Total number of orbitals:      36
   Number of occupied orbitals:       6
                 Occupancy sum:       6.000000000
 Num of occupied cond orbitals:       3
            Cond Occupancy sum:       3.000000000
                 HOMO-LUMO gap:       0.221020151 Eh
                 Mid-gap level:      -0.123955628 Eh

                        Orbital | Energy (Eh) | Occupancy | Cond Occupancy
                            1    -0.690176593   0.9999743   0.0000073
                            2    -0.505936110   0.9999553   0.0000000
                            3    -0.405175388   0.9998850   0.0000287
                            4    -0.361346138   0.9998201   0.0001415
                            5    -0.287256919   0.9996940   0.0000000
                            6    -0.234465704   0.9987299   0.0000001
                        .......   --- gap ---   .........
                            7    -0.013445553   0.0000000   0.9995499
                            8     0.068293510   0.0000892   0.9961087
                            9     0.099968997   0.0000231   0.9972644
                           10     0.115281834   0.0000003   0.0000385
                           11     0.210067840   0.0001991   0.0000001
                           12     0.282432919   0.0000002   0.0000000
                           13     0.287006170   0.0000010   0.0000001
                           14     0.315111074   0.0000398   0.0000595
                           15     0.324906464   0.0012482   0.0000005
                           16     0.328971531   0.0000583   0.0003914
                        .......   ...........   .........
                           36     2.444886217   0.0000003   0.0000000
 
<QC>    [energy_eigenvalue_1]:        -0.690176593192
<QC>    [energy_eigenvalue_n]:         2.444886217215
<QC>            [occupancy_1]:         0.999974302059
<QC>            [occupancy_n]:         0.000000331384
<QC>       [cond_occupancy_1]:         0.000007316439
<QC>       [cond_occupancy_n]:         0.000000001055

================================================================================

===================== Writing canonical molecular orbitals =====================
| Orbital  Energy (eV)  Norm     |
| HOMO     -6.38013644  1.000000 | Writing "ethene_cond_joint_HOMO.cube" ... done
| LUMO     -0.36587211  1.000000 | Writing "ethene_cond_joint_LUMO.cube" ... done
================================================================================

================== Local Density of States (LDOS) calculation ==================
Writing "ethene_cond_joint_LDOS.txt" ...  done
================================================================================
================== Joint density of States (JDOS) calculation ==================
Writing "ethene_cond_joint_JDOS.txt" ...  done
================================================================================
================ Imaginary component of the dielectric function ================
Writing "ethene_cond_joint_OPT_SPEC.txt" ...  done
================================================================================

================ Writing optical matrix elements ================
Writing "ethene_cond_joint_OPT_MAT_ELS.txt" ...  done
================================================================================

 
===================== Density of States (DOS) calculation ======================
Writing "ethene_cond_joint_DOS.txt" ...  done
================================================================================
 
Writing bands to file "ethene_cond.joint_bands" ... done
 
================ Projected Density of States (pDOS) calculation ================
 
Constructing SW functions  ...  done
 
Performing overlap integrals ...  done
<QC>     [lcao_overlap_trace]:        51.019555410106
<QC> [inv_lcao_overlap_trace]:       134.024890566973
 
Computing pDOS weights ...  done
<QC>   [lcao_ngwf_lcao_trace]:        75.866772148299
 
 => Outputting data for OptaDOS <=
 
Writing pDOS weights to file "ethene_cond.joint_pdos_bin" ... done
 
Writing band gradients to file "ethene_cond.joint_dome_bin" ... done
 
Writing Castep output cell file to "ethene_cond-out.cell" ... done
 
 => Computing Gaussian smeared pDOS <= 
Writing "ethene_cond_joint_PDOS.txt" ...  done
<QC>   [pdoswts(l=0,eig_i=1)]:         0.261732572650
<QC>   [pdoswts(l=1,eig_i=1)]:         0.150397550451
<QC>   [pdoswts(l=2,eig_i=1)]:         0.054113956731
<QC>   [pdoswts(l=3,eig_i=1)]:         0.297545207639
<QC>   [pdoswts(l=4,eig_i=1)]:         0.158993539420
<QC>   [pdoswts(l=5,eig_i=1)]:         0.077217173110
<QC>   [pdoswts(l=0,eig_i=2)]:         0.090196284744
<QC>   [pdoswts(l=1,eig_i=2)]:         0.279119668249
<QC>   [pdoswts(l=2,eig_i=2)]:         0.044246827210
<QC>   [pdoswts(l=3,eig_i=2)]:         0.404853327743
<QC>   [pdoswts(l=4,eig_i=2)]:         0.121566354243
<QC>   [pdoswts(l=5,eig_i=2)]:         0.060017537811
<QC>   [pdoswts(l=0,eig_i=3)]:         0.000000000000
<QC>   [pdoswts(l=1,eig_i=3)]:         0.648734209413
<QC>   [pdoswts(l=2,eig_i=3)]:         0.000000000000
<QC>   [pdoswts(l=3,eig_i=3)]:         0.313625468462
<QC>   [pdoswts(l=4,eig_i=3)]:         0.021852624887
<QC>   [pdoswts(l=5,eig_i=3)]:         0.015787697238
<QC>   [pdoswts(l=0,eig_i=4)]:         0.000000000000
<QC>   [pdoswts(l=1,eig_i=4)]:         0.670233929691
<QC>   [pdoswts(l=2,eig_i=4)]:         0.006746877693
<QC>   [pdoswts(l=3,eig_i=4)]:         0.250759609858
<QC>   [pdoswts(l=4,eig_i=4)]:         0.030395598271
<QC>   [pdoswts(l=5,eig_i=4)]:         0.041863984487
<QC>   [pdoswts(l=0,eig_i=5)]:         0.000000000000
<QC>   [pdoswts(l=1,eig_i=5)]:         0.443937576499
<QC>   [pdoswts(l=2,eig_i=5)]:         0.115342961799
<QC>   [pdoswts(l=3,eig_i=5)]:         0.437891145940
<QC>   [pdoswts(l=4,eig_i=5)]:         0.000000000000
<QC>   [pdoswts(l=5,eig_i=5)]:         0.002828315762
<QC>   [pdoswts(l=0,eig_i=6)]:         0.000000538093
<QC>   [pdoswts(l=1,eig_i=6)]:         0.906637121969
<QC>   [pdoswts(l=2,eig_i=6)]:         0.027528555462
<QC>   [pdoswts(l=3,eig_i=6)]:         0.000000491188
<QC>   [pdoswts(l=4,eig_i=6)]:         0.012070172962
<QC>   [pdoswts(l=5,eig_i=6)]:         0.053763120325
<QC>   [pdoswts(l=0,eig_i=7)]:         0.000000146698
<QC>   [pdoswts(l=1,eig_i=7)]:         0.698535600684
<QC>   [pdoswts(l=2,eig_i=7)]:         0.094827485992
<QC>   [pdoswts(l=3,eig_i=7)]:         0.000001790282
<QC>   [pdoswts(l=4,eig_i=7)]:         0.162247903687
<QC>   [pdoswts(l=5,eig_i=7)]:         0.044387072658
<QC>   [pdoswts(l=0,eig_i=8)]:         0.016781589308
<QC>   [pdoswts(l=1,eig_i=8)]:         0.040136830490
<QC>   [pdoswts(l=2,eig_i=8)]:         0.129081904471
<QC>   [pdoswts(l=3,eig_i=8)]:         0.199555029413
<QC>   [pdoswts(l=4,eig_i=8)]:         0.569064609757
<QC>   [pdoswts(l=5,eig_i=8)]:         0.045380036560
<QC>   [pdoswts(l=0,eig_i=9)]:         0.000000012398
<QC>   [pdoswts(l=1,eig_i=9)]:         0.000000963439
<QC>   [pdoswts(l=2,eig_i=9)]:         0.134458335181
<QC>   [pdoswts(l=3,eig_i=9)]:         0.231788773176
<QC>   [pdoswts(l=4,eig_i=9)]:         0.612428430124
<QC>   [pdoswts(l=5,eig_i=9)]:         0.021323485681
<QC>  [pdoswts(l=0,eig_i=10)]:         0.000000000000
<QC>  [pdoswts(l=1,eig_i=10)]:         0.004798039747
<QC>  [pdoswts(l=2,eig_i=10)]:         0.035626108429
<QC>  [pdoswts(l=3,eig_i=10)]:         0.252676278367
<QC>  [pdoswts(l=4,eig_i=10)]:         0.665147795785
<QC>  [pdoswts(l=5,eig_i=10)]:         0.041751777673
<QC>  [pdoswts(l=0,eig_i=11)]:         0.000000063299
<QC>  [pdoswts(l=1,eig_i=11)]:         0.047237691629
<QC>  [pdoswts(l=2,eig_i=11)]:         0.053399831082
<QC>  [pdoswts(l=3,eig_i=11)]:         0.028296727438
<QC>  [pdoswts(l=4,eig_i=11)]:         0.843123363436
<QC>  [pdoswts(l=5,eig_i=11)]:         0.027942323116
<QC>  [pdoswts(l=0,eig_i=12)]:         0.000001501031
<QC>  [pdoswts(l=1,eig_i=12)]:         0.000223804742
<QC>  [pdoswts(l=2,eig_i=12)]:         0.469250715794
<QC>  [pdoswts(l=3,eig_i=12)]:         0.000161251196
<QC>  [pdoswts(l=4,eig_i=12)]:         0.433286795357
<QC>  [pdoswts(l=5,eig_i=12)]:         0.097075931879
<QC>  [pdoswts(l=0,eig_i=13)]:         0.000000000000
<QC>  [pdoswts(l=1,eig_i=13)]:         0.000000000000
<QC>  [pdoswts(l=2,eig_i=13)]:         0.000000000000
<QC>  [pdoswts(l=3,eig_i=13)]:         0.000000000000
<QC>  [pdoswts(l=4,eig_i=13)]:         0.000000000000
<QC>  [pdoswts(l=5,eig_i=13)]:         0.000000000000
<QC>  [pdoswts(l=0,eig_i=14)]:         0.000000000000
<QC>  [pdoswts(l=1,eig_i=14)]:         0.000000000000
<QC>  [pdoswts(l=2,eig_i=14)]:         0.000000000000
<QC>  [pdoswts(l=3,eig_i=14)]:         0.000000000000
<QC>  [pdoswts(l=4,eig_i=14)]:         0.000000000000
<QC>  [pdoswts(l=5,eig_i=14)]:         0.000000000000
<QC>  [pdoswts(l=0,eig_i=15)]:         0.000000000000
<QC>  [pdoswts(l=1,eig_i=15)]:         0.000000000000
<QC>  [pdoswts(l=2,eig_i=15)]:         0.000000000000
<QC>  [pdoswts(l=3,eig_i=15)]:         0.000000000000
<QC>  [pdoswts(l=4,eig_i=15)]:         0.000000000000
<QC>  [pdoswts(l=5,eig_i=15)]:         0.000000000000
<QC>  [pdoswts(l=0,eig_i=16)]:         0.000000000000
<QC>  [pdoswts(l=1,eig_i=16)]:         0.000000000000
<QC>  [pdoswts(l=2,eig_i=16)]:         0.000000000000
<QC>  [pdoswts(l=3,eig_i=16)]:         0.000000000000
<QC>  [pdoswts(l=4,eig_i=16)]:         0.000000000000
<QC>  [pdoswts(l=5,eig_i=16)]:         0.000000000000
<QC>  [pdoswts(l=0,eig_i=17)]:         0.000000000000
<QC>  [pdoswts(l=1,eig_i=17)]:         0.000000000000
<QC>  [pdoswts(l=2,eig_i=17)]:         0.000000000000
<QC>  [pdoswts(l=3,eig_i=17)]:         0.000000000000
<QC>  [pdoswts(l=4,eig_i=17)]:         0.000000000000
<QC>  [pdoswts(l=5,eig_i=17)]:         0.000000000000
<QC>  [pdoswts(l=0,eig_i=18)]:         0.000000000000
<QC>  [pdoswts(l=1,eig_i=18)]:         0.000000000000
<QC>  [pdoswts(l=2,eig_i=18)]:         0.000000000000
<QC>  [pdoswts(l=3,eig_i=18)]:         0.000000000000
<QC>  [pdoswts(l=4,eig_i=18)]:         0.000000000000
<QC>  [pdoswts(l=5,eig_i=18)]:         0.000000000000
<QC>  [pdoswts(l=0,eig_i=19)]:         0.000000000000
<QC>  [pdoswts(l=1,eig_i=19)]:         0.000000000000
<QC>  [pdoswts(l=2,eig_i=19)]:         0.000000000000
<QC>  [pdoswts(l=3,eig_i=19)]:         0.000000000000
<QC>  [pdoswts(l=4,eig_i=19)]:         0.000000000000
<QC>  [pdoswts(l=5,eig_i=19)]:         0.000000000000
<QC>  [pdoswts(l=0,eig_i=20)]:         0.000000000000
<QC>  [pdoswts(l=1,eig_i=20)]:         0.000000000000
<QC>  [pdoswts(l=2,eig_i=20)]:         0.000000000000
<QC>  [pdoswts(l=3,eig_i=20)]:         0.000000000000
<QC>  [pdoswts(l=4,eig_i=20)]:         0.000000000000
<QC>  [pdoswts(l=5,eig_i=20)]:         0.000000000000
<QC>  [pdoswts(l=0,eig_i=21)]:         0.000000000000
<QC>  [pdoswts(l=1,eig_i=21)]:         0.000000000000
<QC>  [pdoswts(l=2,eig_i=21)]:         0.000000000000
<QC>  [pdoswts(l=3,eig_i=21)]:         0.000000000000
<QC>  [pdoswts(l=4,eig_i=21)]:         0.000000000000
<QC>  [pdoswts(l=5,eig_i=21)]:         0.000000000000
<QC>  [pdoswts(l=0,eig_i=22)]:         0.000000000000
<QC>  [pdoswts(l=1,eig_i=22)]:         0.000000000000
<QC>  [pdoswts(l=2,eig_i=22)]:         0.000000000000
<QC>  [pdoswts(l=3,eig_i=22)]:         0.000000000000
<QC>  [pdoswts(l=4,eig_i=22)]:         0.000000000000
<QC>  [pdoswts(l=5,eig_i=22)]:         0.000000000000
<QC>  [pdoswts(l=0,eig_i=23)]:         0.000000000000
<QC>  [pdoswts(l=1,eig_i=23)]:         0.000000000000
<QC>  [pdoswts(l=2,eig_i=23)]:         0.000000000000
<QC>  [pdoswts(l=3,eig_i=23)]:         0.000000000000
<QC>  [pdoswts(l=4,eig_i=23)]:         0.000000000000
<QC>  [pdoswts(l=5,eig_i=23)]:         0.000000000000
<QC>  [pdoswts(l=0,eig_i=24)]:         0.000000000000
<QC>  [pdoswts(l=1,eig_i=24)]:         0.000000000000
<QC>  [pdoswts(l=2,eig_i=24)]:         0.000000000000
<QC>  [pdoswts(l=3,eig_i=24)]:         0.000000000000
<QC>  [pdoswts(l=4,eig_i=24)]:         0.000000000000
<QC>  [pdoswts(l=5,eig_i=24)]:         0.000000000000
<QC>  [pdoswts(l=0,eig_i=25)]:         0.000000000000
<QC>  [pdoswts(l=1,eig_i=25)]:         0.000000000000
<QC>  [pdoswts(l=2,eig_i=25)]:         0.000000000000
<QC>  [pdoswts(l=3,eig_i=25)]:         0.000000000000
<QC>  [pdoswts(l=4,eig_i=25)]:         0.000000000000
<QC>  [pdoswts(l=5,eig_i=25)]:         0.000000000000
<QC>  [pdoswts(l=0,eig_i=26)]:         0.000000000000
<QC>  [pdoswts(l=1,eig_i=26)]:         0.000000000000
<QC>  [pdoswts(l=2,eig_i=26)]:         0.000000000000
<QC>  [pdoswts(l=3,eig_i=26)]:         0.000000000000
<QC>  [pdoswts(l=4,eig_i=26)]:         0.000000000000
<QC>  [pdoswts(l=5,eig_i=26)]:         0.000000000000
<QC>  [pdoswts(l=0,eig_i=27)]:         0.000000000000
<QC>  [pdoswts(l=1,eig_i=27)]:         0.000000000000
<QC>  [pdoswts(l=2,eig_i=27)]:         0.000000000000
<QC>  [pdoswts(l=3,eig_i=27)]:         0.000000000000
<QC>  [pdoswts(l=4,eig_i=27)]:         0.000000000000
<QC>  [pdoswts(l=5,eig_i=27)]:         0.000000000000
<QC>  [pdoswts(l=0,eig_i=28)]:         0.000000000000
<QC>  [pdoswts(l=1,eig_i=28)]:         0.000000000000
<QC>  [pdoswts(l=2,eig_i=28)]:         0.000000000000
<QC>  [pdoswts(l=3,eig_i=28)]:         0.000000000000
<QC>  [pdoswts(l=4,eig_i=28)]:         0.000000000000
<QC>  [pdoswts(l=5,eig_i=28)]:         0.000000000000
<QC>  [pdoswts(l=0,eig_i=29)]:         0.000000000000
<QC>  [pdoswts(l=1,eig_i=29)]:         0.000000000000
<QC>  [pdoswts(l=2,eig_i=29)]:         0.000000000000
<QC>  [pdoswts(l=3,eig_i=29)]:         0.000000000000
<QC>  [pdoswts(l=4,eig_i=29)]:         0.000000000000
<QC>  [pdoswts(l=5,eig_i=29)]:         0.000000000000
<QC>  [pdoswts(l=0,eig_i=30)]:         0.000000000000
<QC>  [pdoswts(l=1,eig_i=30)]:         0.000000000000
<QC>  [pdoswts(l=2,eig_i=30)]:         0.000000000000
<QC>  [pdoswts(l=3,eig_i=30)]:         0.000000000000
<QC>  [pdoswts(l=4,eig_i=30)]:         0.000000000000
<QC>  [pdoswts(l=5,eig_i=30)]:         0.000000000000
<QC>  [pdoswts(l=0,eig_i=31)]:         0.000000000000
<QC>  [pdoswts(l=1,eig_i=31)]:         0.000000000000
<QC>  [pdoswts(l=2,eig_i=31)]:         0.000000000000
<QC>  [pdoswts(l=3,eig_i=31)]:         0.000000000000
<QC>  [pdoswts(l=4,eig_i=31)]:         0.000000000000
<QC>  [pdoswts(l=5,eig_i=31)]:         0.000000000000
<QC>  [pdoswts(l=0,eig_i=32)]:         0.000000000000
<QC>  [pdoswts(l=1,eig_i=32)]:         0.000000000000
<QC>  [pdoswts(l=2,eig_i=32)]:         0.000000000000
<QC>  [pdoswts(l=3,eig_i=32)]:         0.000000000000
<QC>  [pdoswts(l=4,eig_i=32)]:         0.000000000000
<QC>  [pdoswts(l=5,eig_i=32)]:         0.000000000000
<QC>  [pdoswts(l=0,eig_i=33)]:         0.000000000000
<QC>  [pdoswts(l=1,eig_i=33)]:         0.000000000000
<QC>  [pdoswts(l=2,eig_i=33)]:         0.000000000000
<QC>  [pdoswts(l=3,eig_i=33)]:         0.000000000000
<QC>  [pdoswts(l=4,eig_i=33)]:         0.000000000000
<QC>  [pdoswts(l=5,eig_i=33)]:         0.000000000000
<QC>  [pdoswts(l=0,eig_i=34)]:         0.000000000000
<QC>  [pdoswts(l=1,eig_i=34)]:         0.000000000000
<QC>  [pdoswts(l=2,eig_i=34)]:         0.000000000000
<QC>  [pdoswts(l=3,eig_i=34)]:         0.000000000000
<QC>  [pdoswts(l=4,eig_i=34)]:         0.000000000000
<QC>  [pdoswts(l=5,eig_i=34)]:         0.000000000000
<QC>  [pdoswts(l=0,eig_i=35)]:         0.000000000000
<QC>  [pdoswts(l=1,eig_i=35)]:         0.000000000000
<QC>  [pdoswts(l=2,eig_i=35)]:         0.000000000000
<QC>  [pdoswts(l=3,eig_i=35)]:         0.000000000000
<QC>  [pdoswts(l=4,eig_i=35)]:         0.000000000000
<QC>  [pdoswts(l=5,eig_i=35)]:         0.000000000000
<QC>  [pdoswts(l=0,eig_i=36)]:         0.000000000000
<QC>  [pdoswts(l=1,eig_i=36)]:         0.000000000000
<QC>  [pdoswts(l=2,eig_i=36)]:         0.000000000000
<QC>  [pdoswts(l=3,eig_i=36)]:         0.000000000000
<QC>  [pdoswts(l=4,eig_i=36)]:         0.000000000000
<QC>  [pdoswts(l=5,eig_i=36)]:         0.000000000000
 
 => Computing Occupancy-weighted Gaussian smeared pDOS <= 
Writing "ethene_cond_occ_joint_PDOS.txt" ...  done
  => Band centres: 
<QC>           [band_centres]:       -17.495006014055
 S band centre of group            1 :  -17.4950060140553      eV
<QC>           [band_centres]:        -9.572986764839
 P band centre of group            1 :  -9.57298676483856      eV
<QC>           [band_centres]:       -11.165606251900
 D band centre of group            1 :  -11.1656062519003      eV
<QC>           [band_centres]:       -12.030435681182
 S band centre of group            2 :  -12.0304356811817      eV
<QC>           [band_centres]:       -15.285250193361
 P band centre of group            2 :  -15.2852501933605      eV
<QC>           [band_centres]:       -12.832938835940
 D band centre of group            2 :  -12.8329388359402      eV
  Band centres done. <=
  => Integrated number of electrons in each AM band: 
 S num electrons of group            1 :  0.234547607468689     
 P num electrons of group            1 :   2.06543459687767     
 D num electrons of group            1 :  0.165257593869327     
 S num electrons of group            2 :   1.13627905415974     
 P num electrons of group            2 :  0.230036670800455     
 D num electrons of group            2 :  0.167615593879602     
  Integrated number of electrons done. <=
================================================================================
+------------------------------------------------------------------------------+
|               Conduction properties calculation complete                     |
+------------------------------------------------------------------------------+

------------------------------ TIMING INFORMATION ------------------------------
AVERAGE TIME:      24.629s on      4 node(s)                                    
TOTAL TIME:        24.629s on      4 node(s)                                    

Job completed: 28-04-2016 12:35 (+0100)

