  20  20   1   0
  0.1395404E+02  0.5520082E-09  0.7473348E-09  0.7473346E-09  0.5000000E-15
   1.0000000000000000E-004
  CAR 
 unknown system                          
     17.63218887    -40.08656139  301      1.95192839      1.00000000
    -40.087  0.0000E+00  0.0000E+00
    -39.894  0.0000E+00  0.0000E+00
    -39.702  0.0000E+00  0.0000E+00
    -39.509  0.0000E+00  0.0000E+00
    -39.317  0.0000E+00  0.0000E+00
    -39.125  0.0000E+00  0.0000E+00
    -38.932  0.0000E+00  0.0000E+00
    -38.740  0.0000E+00  0.0000E+00
    -38.547  0.0000E+00  0.0000E+00
    -38.355  0.0000E+00  0.0000E+00
    -38.163  0.0000E+00  0.0000E+00
    -37.970  0.0000E+00  0.0000E+00
    -37.778  0.0000E+00  0.0000E+00
    -37.585  0.0000E+00  0.0000E+00
    -37.393  0.2542E+00  0.2005E+02
    -37.201  0.0000E+00  0.2400E+02
    -37.008  0.0000E+00  0.2400E+02
    -36.816  0.0000E+00  0.2400E+02
    -36.623  0.0000E+00  0.2400E+02
    -36.431  0.0000E+00  0.2400E+02
    -36.239  0.0000E+00  0.3600E+02
    -36.046  0.0000E+00  0.3600E+02
    -35.854  0.0000E+00  0.3600E+02
    -35.661  0.0000E+00  0.3600E+02
    -35.469  0.0000E+00  0.3600E+02
    -35.277  0.0000E+00  0.3600E+02
    -35.084  0.0000E+00  0.3600E+02
    -34.892  0.0000E+00  0.3600E+02
    -34.699  0.0000E+00  0.3600E+02
    -34.507  0.0000E+00  0.3600E+02
    -34.315  0.0000E+00  0.3600E+02
    -34.122  0.0000E+00  0.3600E+02
    -33.930  0.0000E+00  0.3600E+02
    -33.737  0.0000E+00  0.3600E+02
    -33.545  0.0000E+00  0.3600E+02
    -33.353  0.0000E+00  0.3600E+02
    -33.160  0.0000E+00  0.3600E+02
    -32.968  0.0000E+00  0.3600E+02
    -32.776  0.0000E+00  0.3600E+02
    -32.583  0.0000E+00  0.3600E+02
    -32.391  0.0000E+00  0.3600E+02
    -32.198  0.0000E+00  0.3600E+02
    -32.006  0.0000E+00  0.3600E+02
    -31.814  0.0000E+00  0.3600E+02
    -31.621  0.0000E+00  0.3600E+02
    -31.429  0.0000E+00  0.3600E+02
    -31.236  0.0000E+00  0.3600E+02
    -31.044  0.0000E+00  0.3600E+02
    -30.852  0.0000E+00  0.3600E+02
    -30.659  0.0000E+00  0.3600E+02
    -30.467  0.0000E+00  0.3600E+02
    -30.274  0.0000E+00  0.3600E+02
    -30.082  0.0000E+00  0.3600E+02
    -29.890  0.0000E+00  0.3600E+02
    -29.697  0.0000E+00  0.3600E+02
    -29.505  0.0000E+00  0.3600E+02
    -29.312  0.0000E+00  0.3600E+02
    -29.120  0.0000E+00  0.3600E+02
    -28.928  0.0000E+00  0.3600E+02
    -28.735  0.0000E+00  0.3600E+02
    -28.543  0.0000E+00  0.3600E+02
    -28.350  0.0000E+00  0.3600E+02
    -28.158  0.0000E+00  0.3600E+02
    -27.966  0.0000E+00  0.3600E+02
    -27.773  0.0000E+00  0.3600E+02
    -27.581  0.0000E+00  0.3600E+02
    -27.388  0.0000E+00  0.3600E+02
    -27.196  0.0000E+00  0.3600E+02
    -27.004  0.0000E+00  0.3600E+02
    -26.811  0.0000E+00  0.3600E+02
    -26.619  0.0000E+00  0.3600E+02
    -26.426  0.0000E+00  0.3600E+02
    -26.234  0.0000E+00  0.3600E+02
    -26.042  0.0000E+00  0.3600E+02
    -25.849  0.0000E+00  0.3600E+02
    -25.657  0.0000E+00  0.3600E+02
    -25.464  0.0000E+00  0.3600E+02
    -25.272  0.0000E+00  0.3600E+02
    -25.080  0.0000E+00  0.3600E+02
    -24.887  0.0000E+00  0.3600E+02
    -24.695  0.0000E+00  0.3600E+02
    -24.502  0.0000E+00  0.3600E+02
    -24.310  0.0000E+00  0.3600E+02
    -24.118  0.0000E+00  0.3600E+02
    -23.925  0.0000E+00  0.3600E+02
    -23.733  0.0000E+00  0.3600E+02
    -23.541  0.0000E+00  0.3600E+02
    -23.348  0.0000E+00  0.3600E+02
    -23.156  0.0000E+00  0.3600E+02
    -22.963  0.0000E+00  0.3600E+02
    -22.771  0.0000E+00  0.3600E+02
    -22.579  0.0000E+00  0.3600E+02
    -22.386  0.0000E+00  0.3600E+02
    -22.194  0.0000E+00  0.3600E+02
    -22.001  0.0000E+00  0.3600E+02
    -21.809  0.0000E+00  0.3600E+02
    -21.617  0.0000E+00  0.3600E+02
    -21.424  0.0000E+00  0.3600E+02
    -21.232  0.0000E+00  0.3600E+02
    -21.039  0.0000E+00  0.3600E+02
    -20.847  0.0000E+00  0.3600E+02
    -20.655  0.0000E+00  0.3600E+02
    -20.462  0.0000E+00  0.3600E+02
    -20.270  0.0000E+00  0.3600E+02
    -20.077  0.0000E+00  0.3600E+02
    -19.885  0.0000E+00  0.3600E+02
    -19.693  0.0000E+00  0.3600E+02
    -19.500  0.0000E+00  0.3600E+02
    -19.308  0.0000E+00  0.3600E+02
    -19.115  0.0000E+00  0.3600E+02
    -18.923  0.0000E+00  0.3600E+02
    -18.731  0.0000E+00  0.3600E+02
    -18.538  0.0000E+00  0.3600E+02
    -18.346  0.0000E+00  0.3600E+02
    -18.153  0.0000E+00  0.3600E+02
    -17.961  0.0000E+00  0.3600E+02
    -17.769  0.0000E+00  0.3600E+02
    -17.576  0.0000E+00  0.3600E+02
    -17.384  0.0000E+00  0.3600E+02
    -17.191  0.0000E+00  0.3600E+02
    -16.999  0.0000E+00  0.3600E+02
    -16.807  0.0000E+00  0.3600E+02
    -16.614  0.0000E+00  0.3600E+02
    -16.422  0.0000E+00  0.3600E+02
    -16.229  0.0000E+00  0.3600E+02
    -16.037  0.0000E+00  0.3600E+02
    -15.845  0.0000E+00  0.3600E+02
    -15.652  0.0000E+00  0.3650E+02
    -15.460  0.0000E+00  0.3750E+02
    -15.267  0.0000E+00  0.3750E+02
    -15.075  0.0000E+00  0.3850E+02
    -14.883  0.0000E+00  0.3862E+02
    -14.690  0.3264E+00  0.3978E+02
    -14.498  0.1299E+01  0.4356E+02
    -14.306  0.3249E+00  0.4669E+02
    -14.113  0.4873E+00  0.4978E+02
    -13.921  0.1023E-07  0.5769E+02
    -13.728  0.0000E+00  0.6000E+02
    -13.536  0.0000E+00  0.6000E+02
    -13.344  0.0000E+00  0.6000E+02
    -13.151  0.0000E+00  0.6000E+02
    -12.959  0.0000E+00  0.6000E+02
    -12.766  0.0000E+00  0.6000E+02
    -12.574  0.0000E+00  0.6000E+02
    -12.382  0.0000E+00  0.6000E+02
    -12.189  0.0000E+00  0.6000E+02
    -11.997  0.0000E+00  0.6000E+02
    -11.804  0.0000E+00  0.6000E+02
    -11.612  0.0000E+00  0.6000E+02
    -11.420  0.0000E+00  0.6000E+02
    -11.227  0.0000E+00  0.6000E+02
    -11.035  0.0000E+00  0.6000E+02
    -10.842  0.0000E+00  0.6000E+02
    -10.650  0.0000E+00  0.6000E+02
    -10.458  0.0000E+00  0.6000E+02
    -10.265  0.0000E+00  0.6000E+02
    -10.073  0.0000E+00  0.6000E+02
     -9.880  0.0000E+00  0.6000E+02
     -9.688  0.0000E+00  0.6000E+02
     -9.496  0.0000E+00  0.6000E+02
     -9.303  0.0000E+00  0.6000E+02
     -9.111  0.0000E+00  0.6000E+02
     -8.918  0.0000E+00  0.6000E+02
     -8.726  0.0000E+00  0.6000E+02
     -8.534  0.0000E+00  0.6000E+02
     -8.341  0.0000E+00  0.6000E+02
     -8.149  0.0000E+00  0.6000E+02
     -7.956  0.0000E+00  0.6000E+02
     -7.764  0.0000E+00  0.6050E+02
     -7.572  0.0000E+00  0.6050E+02
     -7.379  0.0000E+00  0.6150E+02
     -7.187  0.0000E+00  0.6150E+02
     -6.994  0.0000E+00  0.6150E+02
     -6.802  0.0000E+00  0.6250E+02
     -6.610  0.0000E+00  0.6250E+02
     -6.417  0.3082E+01  0.6309E+02
     -6.225  0.0000E+00  0.6400E+02
     -6.032  0.0000E+00  0.6400E+02
     -5.840  0.0000E+00  0.6400E+02
     -5.648  0.0000E+00  0.6400E+02
     -5.455  0.0000E+00  0.6400E+02
     -5.263  0.0000E+00  0.6400E+02
     -5.071  0.0000E+00  0.6400E+02
     -4.878  0.0000E+00  0.6400E+02
     -4.686  0.0000E+00  0.6400E+02
     -4.493  0.0000E+00  0.6400E+02
     -4.301  0.0000E+00  0.6400E+02
     -4.109  0.0000E+00  0.6400E+02
     -3.916  0.0000E+00  0.6400E+02
     -3.724  0.0000E+00  0.6400E+02
     -3.531  0.0000E+00  0.6400E+02
     -3.339  0.0000E+00  0.6400E+02
     -3.147  0.0000E+00  0.6400E+02
     -2.954  0.0000E+00  0.6400E+02
     -2.762  0.0000E+00  0.6400E+02
     -2.569  0.0000E+00  0.6400E+02
     -2.377  0.0000E+00  0.6453E+02
     -2.185  0.5666E+00  0.6508E+02
     -1.992  0.0000E+00  0.6850E+02
     -1.800  0.3147E+00  0.7178E+02
     -1.607  0.2334E+01  0.7529E+02
     -1.415  0.7589E+00  0.7705E+02
     -1.223  0.6497E+00  0.8125E+02
     -1.030  0.0000E+00  0.8472E+02
     -0.838  0.3249E+00  0.8841E+02
     -0.645  0.1627E+00  0.9119E+02
     -0.453  0.1383E+00  0.9571E+02
     -0.261  0.1299E+01  0.9944E+02
     -0.068  0.0000E+00  0.1028E+03
      0.124  0.4873E+00  0.1048E+03
      0.317  0.1313E+01  0.1088E+03
      0.509  0.3397E+00  0.1117E+03
      0.701  0.2981E-01  0.1148E+03
      0.894  0.9745E+00  0.1196E+03
      1.086  0.5299E-01  0.1221E+03
      1.279  0.2795E+01  0.1268E+03
      1.471  0.4071E+00  0.1316E+03
      1.663  0.1261E+01  0.1353E+03
      1.856  0.1803E-16  0.1355E+03
      2.048  0.0000E+00  0.1360E+03
      2.241  0.0000E+00  0.1360E+03
      2.433  0.0000E+00  0.1360E+03
      2.625  0.0000E+00  0.1360E+03
      2.818  0.0000E+00  0.1360E+03
      3.010  0.0000E+00  0.1360E+03
      3.203  0.0000E+00  0.1360E+03
      3.395  0.0000E+00  0.1360E+03
      3.587  0.0000E+00  0.1360E+03
      3.780  0.0000E+00  0.1360E+03
      3.972  0.0000E+00  0.1360E+03
      4.164  0.0000E+00  0.1360E+03
      4.357  0.0000E+00  0.1360E+03
      4.549  0.0000E+00  0.1360E+03
      4.742  0.0000E+00  0.1360E+03
      4.934  0.0000E+00  0.1360E+03
      5.126  0.6151E+00  0.1361E+03
      5.319  0.0000E+00  0.1364E+03
      5.511  0.3221E+01  0.1381E+03
      5.704  0.2591E+01  0.1432E+03
      5.896  0.0000E+00  0.1445E+03
      6.088  0.0000E+00  0.1456E+03
      6.281  0.2964E+00  0.1477E+03
      6.473  0.6497E+00  0.1506E+03
      6.666  0.1170E-07  0.1552E+03
      6.858  0.6522E+00  0.1603E+03
      7.050  0.3249E+00  0.1625E+03
      7.243  0.0000E+00  0.1644E+03
      7.435  0.0000E+00  0.1659E+03
      7.628  0.0000E+00  0.1660E+03
      7.820  0.0000E+00  0.1665E+03
      8.012  0.1609E+00  0.1677E+03
      8.205  0.0000E+00  0.1680E+03
      8.397  0.0000E+00  0.1680E+03
      8.590  0.0000E+00  0.1680E+03
      8.782  0.0000E+00  0.1682E+03
      8.974  0.0000E+00  0.1682E+03
      9.167  0.0000E+00  0.1683E+03
      9.359  0.0000E+00  0.1687E+03
      9.552  0.0000E+00  0.1693E+03
      9.744  0.1542E-03  0.1696E+03
      9.936  0.0000E+00  0.1702E+03
     10.129  0.6282E+00  0.1711E+03
     10.321  0.0000E+00  0.1715E+03
     10.514  0.0000E+00  0.1721E+03
     10.706  0.5211E-04  0.1728E+03
     10.898  0.0000E+00  0.1736E+03
     11.091  0.0000E+00  0.1743E+03
     11.283  0.2631E-10  0.1751E+03
     11.476  0.0000E+00  0.1771E+03
     11.668  0.0000E+00  0.1777E+03
     11.860  0.3249E+00  0.1798E+03
     12.053  0.9812E+00  0.1814E+03
     12.245  0.7456E-12  0.1835E+03
     12.438  0.1807E+01  0.1857E+03
     12.630  0.1949E+01  0.1877E+03
     12.822  0.0000E+00  0.1894E+03
     13.015  0.1299E+01  0.1906E+03
     13.207  0.3607E-15  0.1916E+03
     13.399  0.6497E+00  0.1924E+03
     13.592  0.6497E+00  0.1937E+03
     13.784  0.2454E+00  0.1946E+03
     13.977  0.8417E-01  0.1957E+03
     14.169  0.3222E-01  0.1973E+03
     14.361  0.0000E+00  0.1990E+03
     14.554  0.3349E+00  0.2001E+03
     14.746  0.3111E-01  0.2017E+03
     14.939  0.0000E+00  0.2038E+03
     15.131  0.0000E+00  0.2040E+03
     15.323  0.0000E+00  0.2040E+03
     15.516  0.0000E+00  0.2040E+03
     15.708  0.0000E+00  0.2040E+03
     15.901  0.0000E+00  0.2040E+03
     16.093  0.0000E+00  0.2040E+03
     16.285  0.0000E+00  0.2040E+03
     16.478  0.0000E+00  0.2040E+03
     16.670  0.0000E+00  0.2040E+03
     16.863  0.0000E+00  0.2040E+03
     17.055  0.0000E+00  0.2040E+03
     17.247  0.0000E+00  0.2040E+03
     17.440  0.0000E+00  0.2040E+03
     17.632  0.0000E+00  0.2040E+03
     17.63218887    -40.08656139  301      1.95192839      1.00000000
    -40.087  0.0000E+00  0.0000E+00  0.0000E+00  0.0000E+00  0.0000E+00  0.0000E+00  0.0000E+00  0.0000E+00  0.0000E+00
    -39.894  0.0000E+00  0.0000E+00  0.0000E+00  0.0000E+00  0.0000E+00  0.0000E+00  0.0000E+00  0.0000E+00  0.0000E+00
    -39.702  0.0000E+00  0.0000E+00  0.0000E+00  0.0000E+00  0.0000E+00  0.0000E+00  0.0000E+00  0.0000E+00  0.0000E+00
    -39.509  0.0000E+00  0.0000E+00  0.0000E+00  0.0000E+00  0.0000E+00  0.0000E+00  0.0000E+00  0.0000E+00  0.0000E+00
    -39.317  0.0000E+00  0.0000E+00  0.0000E+00  0.0000E+00  0.0000E+00  0.0000E+00  0.0000E+00  0.0000E+00  0.0000E+00
    -39.125  0.0000E+00  0.0000E+00  0.0000E+00  0.0000E+00  0.0000E+00  0.0000E+00  0.0000E+00  0.0000E+00  0.0000E+00
    -38.932  0.0000E+00  0.0000E+00  0.0000E+00  0.0000E+00  0.0000E+00  0.0000E+00  0.0000E+00  0.0000E+00  0.0000E+00
    -38.740  0.0000E+00  0.0000E+00  0.0000E+00  0.0000E+00  0.0000E+00  0.0000E+00  0.0000E+00  0.0000E+00  0.0000E+00
    -38.547  0.0000E+00  0.0000E+00  0.0000E+00  0.0000E+00  0.0000E+00  0.0000E+00  0.0000E+00  0.0000E+00  0.0000E+00
    -38.355  0.0000E+00  0.0000E+00  0.0000E+00  0.0000E+00  0.0000E+00  0.0000E+00  0.0000E+00  0.0000E+00  0.0000E+00
    -38.163  0.0000E+00  0.0000E+00  0.0000E+00  0.0000E+00  0.0000E+00  0.0000E+00  0.0000E+00  0.0000E+00  0.0000E+00
    -37.970  0.0000E+00  0.0000E+00  0.0000E+00  0.0000E+00  0.0000E+00  0.0000E+00  0.0000E+00  0.0000E+00  0.0000E+00
    -37.778  0.0000E+00  0.0000E+00  0.0000E+00  0.0000E+00  0.0000E+00  0.0000E+00  0.0000E+00  0.0000E+00  0.0000E+00
    -37.585  0.0000E+00  0.0000E+00  0.0000E+00  0.0000E+00  0.0000E+00  0.0000E+00  0.0000E+00  0.0000E+00  0.0000E+00
    -37.393  0.1840E-07  0.5155E-01  0.1141E-01  0.1655E-03  0.0000E+00  0.0000E+00  0.0000E+00  0.0000E+00  0.0000E+00
    -37.201  0.0000E+00  0.0000E+00  0.0000E+00  0.0000E+00  0.0000E+00  0.0000E+00  0.0000E+00  0.0000E+00  0.0000E+00
    -37.008  0.0000E+00  0.0000E+00  0.0000E+00  0.0000E+00  0.0000E+00  0.0000E+00  0.0000E+00  0.0000E+00  0.0000E+00
    -36.816  0.0000E+00  0.0000E+00  0.0000E+00  0.0000E+00  0.0000E+00  0.0000E+00  0.0000E+00  0.0000E+00  0.0000E+00
    -36.623  0.0000E+00  0.0000E+00  0.0000E+00  0.0000E+00  0.0000E+00  0.0000E+00  0.0000E+00  0.0000E+00  0.0000E+00
    -36.431  0.0000E+00  0.0000E+00  0.0000E+00  0.0000E+00  0.0000E+00  0.0000E+00  0.0000E+00  0.0000E+00  0.0000E+00
    -36.239  0.0000E+00  0.0000E+00  0.0000E+00  0.0000E+00  0.0000E+00  0.0000E+00  0.0000E+00  0.0000E+00  0.0000E+00
    -36.046  0.0000E+00  0.0000E+00  0.0000E+00  0.0000E+00  0.0000E+00  0.0000E+00  0.0000E+00  0.0000E+00  0.0000E+00
    -35.854  0.0000E+00  0.0000E+00  0.0000E+00  0.0000E+00  0.0000E+00  0.0000E+00  0.0000E+00  0.0000E+00  0.0000E+00
    -35.661  0.0000E+00  0.0000E+00  0.0000E+00  0.0000E+00  0.0000E+00  0.0000E+00  0.0000E+00  0.0000E+00  0.0000E+00
    -35.469  0.0000E+00  0.0000E+00  0.0000E+00  0.0000E+00  0.0000E+00  0.0000E+00  0.0000E+00  0.0000E+00  0.0000E+00
    -35.277  0.0000E+00  0.0000E+00  0.0000E+00  0.0000E+00  0.0000E+00  0.0000E+00  0.0000E+00  0.0000E+00  0.0000E+00
    -35.084  0.0000E+00  0.0000E+00  0.0000E+00  0.0000E+00  0.0000E+00  0.0000E+00  0.0000E+00  0.0000E+00  0.0000E+00
    -34.892  0.0000E+00  0.0000E+00  0.0000E+00  0.0000E+00  0.0000E+00  0.0000E+00  0.0000E+00  0.0000E+00  0.0000E+00
    -34.699  0.0000E+00  0.0000E+00  0.0000E+00  0.0000E+00  0.0000E+00  0.0000E+00  0.0000E+00  0.0000E+00  0.0000E+00
    -34.507  0.0000E+00  0.0000E+00  0.0000E+00  0.0000E+00  0.0000E+00  0.0000E+00  0.0000E+00  0.0000E+00  0.0000E+00
    -34.315  0.0000E+00  0.0000E+00  0.0000E+00  0.0000E+00  0.0000E+00  0.0000E+00  0.0000E+00  0.0000E+00  0.0000E+00
    -34.122  0.0000E+00  0.0000E+00  0.0000E+00  0.0000E+00  0.0000E+00  0.0000E+00  0.0000E+00  0.0000E+00  0.0000E+00
    -33.930  0.0000E+00  0.0000E+00  0.0000E+00  0.0000E+00  0.0000E+00  0.0000E+00  0.0000E+00  0.0000E+00  0.0000E+00
    -33.737  0.0000E+00  0.0000E+00  0.0000E+00  0.0000E+00  0.0000E+00  0.0000E+00  0.0000E+00  0.0000E+00  0.0000E+00
    -33.545  0.0000E+00  0.0000E+00  0.0000E+00  0.0000E+00  0.0000E+00  0.0000E+00  0.0000E+00  0.0000E+00  0.0000E+00
    -33.353  0.0000E+00  0.0000E+00  0.0000E+00  0.0000E+00  0.0000E+00  0.0000E+00  0.0000E+00  0.0000E+00  0.0000E+00
    -33.160  0.0000E+00  0.0000E+00  0.0000E+00  0.0000E+00  0.0000E+00  0.0000E+00  0.0000E+00  0.0000E+00  0.0000E+00
    -32.968  0.0000E+00  0.0000E+00  0.0000E+00  0.0000E+00  0.0000E+00  0.0000E+00  0.0000E+00  0.0000E+00  0.0000E+00
    -32.776  0.0000E+00  0.0000E+00  0.0000E+00  0.0000E+00  0.0000E+00  0.0000E+00  0.0000E+00  0.0000E+00  0.0000E+00
    -32.583  0.0000E+00  0.0000E+00  0.0000E+00  0.0000E+00  0.0000E+00  0.0000E+00  0.0000E+00  0.0000E+00  0.0000E+00
    -32.391  0.0000E+00  0.0000E+00  0.0000E+00  0.0000E+00  0.0000E+00  0.0000E+00  0.0000E+00  0.0000E+00  0.0000E+00
    -32.198  0.0000E+00  0.0000E+00  0.0000E+00  0.0000E+00  0.0000E+00  0.0000E+00  0.0000E+00  0.0000E+00  0.0000E+00
    -32.006  0.0000E+00  0.0000E+00  0.0000E+00  0.0000E+00  0.0000E+00  0.0000E+00  0.0000E+00  0.0000E+00  0.0000E+00
    -31.814  0.0000E+00  0.0000E+00  0.0000E+00  0.0000E+00  0.0000E+00  0.0000E+00  0.0000E+00  0.0000E+00  0.0000E+00
    -31.621  0.0000E+00  0.0000E+00  0.0000E+00  0.0000E+00  0.0000E+00  0.0000E+00  0.0000E+00  0.0000E+00  0.0000E+00
    -31.429  0.0000E+00  0.0000E+00  0.0000E+00  0.0000E+00  0.0000E+00  0.0000E+00  0.0000E+00  0.0000E+00  0.0000E+00
    -31.236  0.0000E+00  0.0000E+00  0.0000E+00  0.0000E+00  0.0000E+00  0.0000E+00  0.0000E+00  0.0000E+00  0.0000E+00
    -31.044  0.0000E+00  0.0000E+00  0.0000E+00  0.0000E+00  0.0000E+00  0.0000E+00  0.0000E+00  0.0000E+00  0.0000E+00
    -30.852  0.0000E+00  0.0000E+00  0.0000E+00  0.0000E+00  0.0000E+00  0.0000E+00  0.0000E+00  0.0000E+00  0.0000E+00
    -30.659  0.0000E+00  0.0000E+00  0.0000E+00  0.0000E+00  0.0000E+00  0.0000E+00  0.0000E+00  0.0000E+00  0.0000E+00
    -30.467  0.0000E+00  0.0000E+00  0.0000E+00  0.0000E+00  0.0000E+00  0.0000E+00  0.0000E+00  0.0000E+00  0.0000E+00
    -30.274  0.0000E+00  0.0000E+00  0.0000E+00  0.0000E+00  0.0000E+00  0.0000E+00  0.0000E+00  0.0000E+00  0.0000E+00
    -30.082  0.0000E+00  0.0000E+00  0.0000E+00  0.0000E+00  0.0000E+00  0.0000E+00  0.0000E+00  0.0000E+00  0.0000E+00
    -29.890  0.0000E+00  0.0000E+00  0.0000E+00  0.0000E+00  0.0000E+00  0.0000E+00  0.0000E+00  0.0000E+00  0.0000E+00
    -29.697  0.0000E+00  0.0000E+00  0.0000E+00  0.0000E+00  0.0000E+00  0.0000E+00  0.0000E+00  0.0000E+00  0.0000E+00
    -29.505  0.0000E+00  0.0000E+00  0.0000E+00  0.0000E+00  0.0000E+00  0.0000E+00  0.0000E+00  0.0000E+00  0.0000E+00
    -29.312  0.0000E+00  0.0000E+00  0.0000E+00  0.0000E+00  0.0000E+00  0.0000E+00  0.0000E+00  0.0000E+00  0.0000E+00
    -29.120  0.0000E+00  0.0000E+00  0.0000E+00  0.0000E+00  0.0000E+00  0.0000E+00  0.0000E+00  0.0000E+00  0.0000E+00
    -28.928  0.0000E+00  0.0000E+00  0.0000E+00  0.0000E+00  0.0000E+00  0.0000E+00  0.0000E+00  0.0000E+00  0.0000E+00
    -28.735  0.0000E+00  0.0000E+00  0.0000E+00  0.0000E+00  0.0000E+00  0.0000E+00  0.0000E+00  0.0000E+00  0.0000E+00
    -28.543  0.0000E+00  0.0000E+00  0.0000E+00  0.0000E+00  0.0000E+00  0.0000E+00  0.0000E+00  0.0000E+00  0.0000E+00
    -28.350  0.0000E+00  0.0000E+00  0.0000E+00  0.0000E+00  0.0000E+00  0.0000E+00  0.0000E+00  0.0000E+00  0.0000E+00
    -28.158  0.0000E+00  0.0000E+00  0.0000E+00  0.0000E+00  0.0000E+00  0.0000E+00  0.0000E+00  0.0000E+00  0.0000E+00
    -27.966  0.0000E+00  0.0000E+00  0.0000E+00  0.0000E+00  0.0000E+00  0.0000E+00  0.0000E+00  0.0000E+00  0.0000E+00
    -27.773  0.0000E+00  0.0000E+00  0.0000E+00  0.0000E+00  0.0000E+00  0.0000E+00  0.0000E+00  0.0000E+00  0.0000E+00
    -27.581  0.0000E+00  0.0000E+00  0.0000E+00  0.0000E+00  0.0000E+00  0.0000E+00  0.0000E+00  0.0000E+00  0.0000E+00
    -27.388  0.0000E+00  0.0000E+00  0.0000E+00  0.0000E+00  0.0000E+00  0.0000E+00  0.0000E+00  0.0000E+00  0.0000E+00
    -27.196  0.0000E+00  0.0000E+00  0.0000E+00  0.0000E+00  0.0000E+00  0.0000E+00  0.0000E+00  0.0000E+00  0.0000E+00
    -27.004  0.0000E+00  0.0000E+00  0.0000E+00  0.0000E+00  0.0000E+00  0.0000E+00  0.0000E+00  0.0000E+00  0.0000E+00
    -26.811  0.0000E+00  0.0000E+00  0.0000E+00  0.0000E+00  0.0000E+00  0.0000E+00  0.0000E+00  0.0000E+00  0.0000E+00
    -26.619  0.0000E+00  0.0000E+00  0.0000E+00  0.0000E+00  0.0000E+00  0.0000E+00  0.0000E+00  0.0000E+00  0.0000E+00
    -26.426  0.0000E+00  0.0000E+00  0.0000E+00  0.0000E+00  0.0000E+00  0.0000E+00  0.0000E+00  0.0000E+00  0.0000E+00
    -26.234  0.0000E+00  0.0000E+00  0.0000E+00  0.0000E+00  0.0000E+00  0.0000E+00  0.0000E+00  0.0000E+00  0.0000E+00
    -26.042  0.0000E+00  0.0000E+00  0.0000E+00  0.0000E+00  0.0000E+00  0.0000E+00  0.0000E+00  0.0000E+00  0.0000E+00
    -25.849  0.0000E+00  0.0000E+00  0.0000E+00  0.0000E+00  0.0000E+00  0.0000E+00  0.0000E+00  0.0000E+00  0.0000E+00
    -25.657  0.0000E+00  0.0000E+00  0.0000E+00  0.0000E+00  0.0000E+00  0.0000E+00  0.0000E+00  0.0000E+00  0.0000E+00
    -25.464  0.0000E+00  0.0000E+00  0.0000E+00  0.0000E+00  0.0000E+00  0.0000E+00  0.0000E+00  0.0000E+00  0.0000E+00
    -25.272  0.0000E+00  0.0000E+00  0.0000E+00  0.0000E+00  0.0000E+00  0.0000E+00  0.0000E+00  0.0000E+00  0.0000E+00
    -25.080  0.0000E+00  0.0000E+00  0.0000E+00  0.0000E+00  0.0000E+00  0.0000E+00  0.0000E+00  0.0000E+00  0.0000E+00
    -24.887  0.0000E+00  0.0000E+00  0.0000E+00  0.0000E+00  0.0000E+00  0.0000E+00  0.0000E+00  0.0000E+00  0.0000E+00
    -24.695  0.0000E+00  0.0000E+00  0.0000E+00  0.0000E+00  0.0000E+00  0.0000E+00  0.0000E+00  0.0000E+00  0.0000E+00
    -24.502  0.0000E+00  0.0000E+00  0.0000E+00  0.0000E+00  0.0000E+00  0.0000E+00  0.0000E+00  0.0000E+00  0.0000E+00
    -24.310  0.0000E+00  0.0000E+00  0.0000E+00  0.0000E+00  0.0000E+00  0.0000E+00  0.0000E+00  0.0000E+00  0.0000E+00
    -24.118  0.0000E+00  0.0000E+00  0.0000E+00  0.0000E+00  0.0000E+00  0.0000E+00  0.0000E+00  0.0000E+00  0.0000E+00
    -23.925  0.0000E+00  0.0000E+00  0.0000E+00  0.0000E+00  0.0000E+00  0.0000E+00  0.0000E+00  0.0000E+00  0.0000E+00
    -23.733  0.0000E+00  0.0000E+00  0.0000E+00  0.0000E+00  0.0000E+00  0.0000E+00  0.0000E+00  0.0000E+00  0.0000E+00
    -23.541  0.0000E+00  0.0000E+00  0.0000E+00  0.0000E+00  0.0000E+00  0.0000E+00  0.0000E+00  0.0000E+00  0.0000E+00
    -23.348  0.0000E+00  0.0000E+00  0.0000E+00  0.0000E+00  0.0000E+00  0.0000E+00  0.0000E+00  0.0000E+00  0.0000E+00
    -23.156  0.0000E+00  0.0000E+00  0.0000E+00  0.0000E+00  0.0000E+00  0.0000E+00  0.0000E+00  0.0000E+00  0.0000E+00
    -22.963  0.0000E+00  0.0000E+00  0.0000E+00  0.0000E+00  0.0000E+00  0.0000E+00  0.0000E+00  0.0000E+00  0.0000E+00
    -22.771  0.0000E+00  0.0000E+00  0.0000E+00  0.0000E+00  0.0000E+00  0.0000E+00  0.0000E+00  0.0000E+00  0.0000E+00
    -22.579  0.0000E+00  0.0000E+00  0.0000E+00  0.0000E+00  0.0000E+00  0.0000E+00  0.0000E+00  0.0000E+00  0.0000E+00
    -22.386  0.0000E+00  0.0000E+00  0.0000E+00  0.0000E+00  0.0000E+00  0.0000E+00  0.0000E+00  0.0000E+00  0.0000E+00
    -22.194  0.0000E+00  0.0000E+00  0.0000E+00  0.0000E+00  0.0000E+00  0.0000E+00  0.0000E+00  0.0000E+00  0.0000E+00
    -22.001  0.0000E+00  0.0000E+00  0.0000E+00  0.0000E+00  0.0000E+00  0.0000E+00  0.0000E+00  0.0000E+00  0.0000E+00
    -21.809  0.0000E+00  0.0000E+00  0.0000E+00  0.0000E+00  0.0000E+00  0.0000E+00  0.0000E+00  0.0000E+00  0.0000E+00
    -21.617  0.0000E+00  0.0000E+00  0.0000E+00  0.0000E+00  0.0000E+00  0.0000E+00  0.0000E+00  0.0000E+00  0.0000E+00
    -21.424  0.0000E+00  0.0000E+00  0.0000E+00  0.0000E+00  0.0000E+00  0.0000E+00  0.0000E+00  0.0000E+00  0.0000E+00
    -21.232  0.0000E+00  0.0000E+00  0.0000E+00  0.0000E+00  0.0000E+00  0.0000E+00  0.0000E+00  0.0000E+00  0.0000E+00
    -21.039  0.0000E+00  0.0000E+00  0.0000E+00  0.0000E+00  0.0000E+00  0.0000E+00  0.0000E+00  0.0000E+00  0.0000E+00
    -20.847  0.0000E+00  0.0000E+00  0.0000E+00  0.0000E+00  0.0000E+00  0.0000E+00  0.0000E+00  0.0000E+00  0.0000E+00
    -20.655  0.0000E+00  0.0000E+00  0.0000E+00  0.0000E+00  0.0000E+00  0.0000E+00  0.0000E+00  0.0000E+00  0.0000E+00
    -20.462  0.0000E+00  0.0000E+00  0.0000E+00  0.0000E+00  0.0000E+00  0.0000E+00  0.0000E+00  0.0000E+00  0.0000E+00
    -20.270  0.0000E+00  0.0000E+00  0.0000E+00  0.0000E+00  0.0000E+00  0.0000E+00  0.0000E+00  0.0000E+00  0.0000E+00
    -20.077  0.0000E+00  0.0000E+00  0.0000E+00  0.0000E+00  0.0000E+00  0.0000E+00  0.0000E+00  0.0000E+00  0.0000E+00
    -19.885  0.0000E+00  0.0000E+00  0.0000E+00  0.0000E+00  0.0000E+00  0.0000E+00  0.0000E+00  0.0000E+00  0.0000E+00
    -19.693  0.0000E+00  0.0000E+00  0.0000E+00  0.0000E+00  0.0000E+00  0.0000E+00  0.0000E+00  0.0000E+00  0.0000E+00
    -19.500  0.0000E+00  0.0000E+00  0.0000E+00  0.0000E+00  0.0000E+00  0.0000E+00  0.0000E+00  0.0000E+00  0.0000E+00
    -19.308  0.0000E+00  0.0000E+00  0.0000E+00  0.0000E+00  0.0000E+00  0.0000E+00  0.0000E+00  0.0000E+00  0.0000E+00
    -19.115  0.0000E+00  0.0000E+00  0.0000E+00  0.0000E+00  0.0000E+00  0.0000E+00  0.0000E+00  0.0000E+00  0.0000E+00
    -18.923  0.0000E+00  0.0000E+00  0.0000E+00  0.0000E+00  0.0000E+00  0.0000E+00  0.0000E+00  0.0000E+00  0.0000E+00
    -18.731  0.0000E+00  0.0000E+00  0.0000E+00  0.0000E+00  0.0000E+00  0.0000E+00  0.0000E+00  0.0000E+00  0.0000E+00
    -18.538  0.0000E+00  0.0000E+00  0.0000E+00  0.0000E+00  0.0000E+00  0.0000E+00  0.0000E+00  0.0000E+00  0.0000E+00
    -18.346  0.0000E+00  0.0000E+00  0.0000E+00  0.0000E+00  0.0000E+00  0.0000E+00  0.0000E+00  0.0000E+00  0.0000E+00
    -18.153  0.0000E+00  0.0000E+00  0.0000E+00  0.0000E+00  0.0000E+00  0.0000E+00  0.0000E+00  0.0000E+00  0.0000E+00
    -17.961  0.0000E+00  0.0000E+00  0.0000E+00  0.0000E+00  0.0000E+00  0.0000E+00  0.0000E+00  0.0000E+00  0.0000E+00
    -17.769  0.0000E+00  0.0000E+00  0.0000E+00  0.0000E+00  0.0000E+00  0.0000E+00  0.0000E+00  0.0000E+00  0.0000E+00
    -17.576  0.0000E+00  0.0000E+00  0.0000E+00  0.0000E+00  0.0000E+00  0.0000E+00  0.0000E+00  0.0000E+00  0.0000E+00
    -17.384  0.0000E+00  0.0000E+00  0.0000E+00  0.0000E+00  0.0000E+00  0.0000E+00  0.0000E+00  0.0000E+00  0.0000E+00
    -17.191  0.0000E+00  0.0000E+00  0.0000E+00  0.0000E+00  0.0000E+00  0.0000E+00  0.0000E+00  0.0000E+00  0.0000E+00
    -16.999  0.0000E+00  0.0000E+00  0.0000E+00  0.0000E+00  0.0000E+00  0.0000E+00  0.0000E+00  0.0000E+00  0.0000E+00
    -16.807  0.0000E+00  0.0000E+00  0.0000E+00  0.0000E+00  0.0000E+00  0.0000E+00  0.0000E+00  0.0000E+00  0.0000E+00
    -16.614  0.0000E+00  0.0000E+00  0.0000E+00  0.0000E+00  0.0000E+00  0.0000E+00  0.0000E+00  0.0000E+00  0.0000E+00
    -16.422  0.0000E+00  0.0000E+00  0.0000E+00  0.0000E+00  0.0000E+00  0.0000E+00  0.0000E+00  0.0000E+00  0.0000E+00
    -16.229  0.0000E+00  0.0000E+00  0.0000E+00  0.0000E+00  0.0000E+00  0.0000E+00  0.0000E+00  0.0000E+00  0.0000E+00
    -16.037  0.0000E+00  0.0000E+00  0.0000E+00  0.0000E+00  0.0000E+00  0.0000E+00  0.0000E+00  0.0000E+00  0.0000E+00
    -15.845  0.0000E+00  0.0000E+00  0.0000E+00  0.0000E+00  0.0000E+00  0.0000E+00  0.0000E+00  0.0000E+00  0.0000E+00
    -15.652  0.0000E+00  0.0000E+00  0.0000E+00  0.0000E+00  0.0000E+00  0.0000E+00  0.0000E+00  0.0000E+00  0.0000E+00
    -15.460  0.0000E+00  0.0000E+00  0.0000E+00  0.0000E+00  0.0000E+00  0.0000E+00  0.0000E+00  0.0000E+00  0.0000E+00
    -15.267  0.0000E+00  0.0000E+00  0.0000E+00  0.0000E+00  0.0000E+00  0.0000E+00  0.0000E+00  0.0000E+00  0.0000E+00
    -15.075  0.0000E+00  0.0000E+00  0.0000E+00  0.0000E+00  0.0000E+00  0.0000E+00  0.0000E+00  0.0000E+00  0.0000E+00
    -14.883  0.0000E+00  0.0000E+00  0.0000E+00  0.0000E+00  0.0000E+00  0.0000E+00  0.0000E+00  0.0000E+00  0.0000E+00
    -14.690  0.5340E-03  0.2244E-03  0.3374E-04  0.7261E-06  0.0000E+00  0.0000E+00  0.0000E+00  0.0000E+00  0.0000E+00
    -14.498  0.1924E-02  0.4067E-03  0.1121E-03  0.5043E-03  0.0000E+00  0.0000E+00  0.0000E+00  0.0000E+00  0.0000E+00
    -14.306  0.1837E-03  0.1752E-03  0.1584E-03  0.6750E-04  0.0000E+00  0.0000E+00  0.0000E+00  0.0000E+00  0.0000E+00
    -14.113  0.1091E-03  0.1213E-03  0.3915E-03  0.3676E-08  0.0000E+00  0.0000E+00  0.0000E+00  0.0000E+00  0.0000E+00
    -13.921  0.1172E-11  0.2186E-12  0.4070E-11  0.3982E-11  0.0000E+00  0.0000E+00  0.0000E+00  0.0000E+00  0.0000E+00
    -13.728  0.0000E+00  0.0000E+00  0.0000E+00  0.0000E+00  0.0000E+00  0.0000E+00  0.0000E+00  0.0000E+00  0.0000E+00
    -13.536  0.0000E+00  0.0000E+00  0.0000E+00  0.0000E+00  0.0000E+00  0.0000E+00  0.0000E+00  0.0000E+00  0.0000E+00
    -13.344  0.0000E+00  0.0000E+00  0.0000E+00  0.0000E+00  0.0000E+00  0.0000E+00  0.0000E+00  0.0000E+00  0.0000E+00
    -13.151  0.0000E+00  0.0000E+00  0.0000E+00  0.0000E+00  0.0000E+00  0.0000E+00  0.0000E+00  0.0000E+00  0.0000E+00
    -12.959  0.0000E+00  0.0000E+00  0.0000E+00  0.0000E+00  0.0000E+00  0.0000E+00  0.0000E+00  0.0000E+00  0.0000E+00
    -12.766  0.0000E+00  0.0000E+00  0.0000E+00  0.0000E+00  0.0000E+00  0.0000E+00  0.0000E+00  0.0000E+00  0.0000E+00
    -12.574  0.0000E+00  0.0000E+00  0.0000E+00  0.0000E+00  0.0000E+00  0.0000E+00  0.0000E+00  0.0000E+00  0.0000E+00
    -12.382  0.0000E+00  0.0000E+00  0.0000E+00  0.0000E+00  0.0000E+00  0.0000E+00  0.0000E+00  0.0000E+00  0.0000E+00
    -12.189  0.0000E+00  0.0000E+00  0.0000E+00  0.0000E+00  0.0000E+00  0.0000E+00  0.0000E+00  0.0000E+00  0.0000E+00
    -11.997  0.0000E+00  0.0000E+00  0.0000E+00  0.0000E+00  0.0000E+00  0.0000E+00  0.0000E+00  0.0000E+00  0.0000E+00
    -11.804  0.0000E+00  0.0000E+00  0.0000E+00  0.0000E+00  0.0000E+00  0.0000E+00  0.0000E+00  0.0000E+00  0.0000E+00
    -11.612  0.0000E+00  0.0000E+00  0.0000E+00  0.0000E+00  0.0000E+00  0.0000E+00  0.0000E+00  0.0000E+00  0.0000E+00
    -11.420  0.0000E+00  0.0000E+00  0.0000E+00  0.0000E+00  0.0000E+00  0.0000E+00  0.0000E+00  0.0000E+00  0.0000E+00
    -11.227  0.0000E+00  0.0000E+00  0.0000E+00  0.0000E+00  0.0000E+00  0.0000E+00  0.0000E+00  0.0000E+00  0.0000E+00
    -11.035  0.0000E+00  0.0000E+00  0.0000E+00  0.0000E+00  0.0000E+00  0.0000E+00  0.0000E+00  0.0000E+00  0.0000E+00
    -10.842  0.0000E+00  0.0000E+00  0.0000E+00  0.0000E+00  0.0000E+00  0.0000E+00  0.0000E+00  0.0000E+00  0.0000E+00
    -10.650  0.0000E+00  0.0000E+00  0.0000E+00  0.0000E+00  0.0000E+00  0.0000E+00  0.0000E+00  0.0000E+00  0.0000E+00
    -10.458  0.0000E+00  0.0000E+00  0.0000E+00  0.0000E+00  0.0000E+00  0.0000E+00  0.0000E+00  0.0000E+00  0.0000E+00
    -10.265  0.0000E+00  0.0000E+00  0.0000E+00  0.0000E+00  0.0000E+00  0.0000E+00  0.0000E+00  0.0000E+00  0.0000E+00
    -10.073  0.0000E+00  0.0000E+00  0.0000E+00  0.0000E+00  0.0000E+00  0.0000E+00  0.0000E+00  0.0000E+00  0.0000E+00