   20   20    1    1
  0.1395404E+02  0.5520082E-09  0.7473348E-09  0.7473346E-09  0.5000000E-15
   1.0000000000000000E-004
  CAR 
 unknown system                          
    136     21    102

  0.1262379E-14  0.1262379E-14  0.1262379E-14  0.1562500E-01
      1        -37.462982   1.000000
      2        -37.461407   1.000000
      3        -37.458572   1.000000
      4        -37.457051   1.000000
      5        -37.409268   1.000000
      6        -37.406222   1.000000
      7        -37.406035   1.000000
      8        -37.405145   1.000000
      9        -37.404054   1.000000
     10        -37.402062   1.000000
     11        -37.391885   1.000000
     12        -37.389977   1.000000
     13        -36.357026   1.000000
     14        -36.356473   1.000000
     15        -36.298132   1.000000
     16        -36.297860   1.000000
     17        -36.277696   1.000000
     18        -36.277398   1.000000
     19        -15.774248   1.000000
     20        -14.747106   1.000000
     21        -14.680551   1.000000
     22        -14.508842   1.000000
     23        -14.433103   1.000000
     24        -14.119806   1.000000
     25        -14.068850   1.000000
     26        -14.062028   1.000000
     27        -14.025738   1.000000
     28        -13.929292   1.000000
     29        -13.900875   1.000000
     30        -13.855388   1.000000
     31         -7.854730   1.000000
     32         -6.248938   1.000000
     33         -2.461469   1.000000
     34         -2.404632   1.000000
     35         -1.837011   1.000000
     36         -1.710981   1.000000
     37         -1.554975   1.000000
     38         -1.380473   1.000000
     39         -1.333683   1.000000
     40         -1.263454   1.000000
     41         -1.217556   1.000000
     42         -1.084001   1.000000
     43         -1.060965   1.000000
     44         -1.043959   1.000000
     45         -0.971586   1.000000
     46         -0.930756   1.000000
     47         -0.648531   1.000000
     48         -0.635827   1.000000
     49         -0.542472   1.000000
     50         -0.421676   1.000000
     51         -0.287739   1.000000
     52         -0.012469   1.000000
     53          0.117424   1.000000
     54          0.199638   1.000000
     55          0.331924   1.000000
     56          0.453026   1.000000
     57          0.708933   1.000000
     58          0.827668   1.000000
     59          0.999836   1.000000
     60          1.130695   1.000000
     61          1.204438   1.000000
     62          1.258513   1.000000
     63          1.339471   1.000000
     64          1.420845   1.000000
     65          1.456266   1.000000
     66          1.498304   1.000000
     67          1.501945   1.000000
     68          1.861523   1.000000
     69          5.330276   0.000000
     70          5.604141   0.000000
     71          5.631500   0.000000
     72          5.685900   0.000000
     73          5.771450   0.000000
     74          6.199833   0.000000
     75          6.333528   0.000000
     76          6.451920   0.000000
     77          6.689549   0.000000
     78          6.735071   0.000000
     79          6.768988   0.000000
     80          6.818284   0.000000
     81          6.912177   0.000000
     82          7.079740   0.000000
     83          7.667249   0.000000
     84          8.010732   0.000000
     85          8.037970   0.000000
     86         10.051663   0.000000
     87         10.494804   0.000000
     88         10.642411   0.000000
     89         11.709367   0.000000
     90         11.854428   0.000000
     91         12.249927   0.000000
     92         12.488930   0.000000
     93         12.796995   0.000000
     94         13.038962   0.000000
     95         13.056778   0.000000
     96         13.136860   0.000000
     97         13.252239   0.000000
     98         13.459106   0.000000
     99         14.101877   0.000000
    100         14.169663   0.000000
    101         14.487587   0.000000
    102         14.698791   0.000000

  0.2500000E+00  0.1262379E-14  0.1262379E-14  0.3125000E-01
      1        -37.462766   1.000000
      2        -37.461645   1.000000
      3        -37.458370   1.000000
      4        -37.457287   1.000000
      5        -37.408786   1.000000
      6        -37.406828   1.000000
      7        -37.405501   1.000000
      8        -37.404817   1.000000
      9        -37.404229   1.000000
     10        -37.402705   1.000000
     11        -37.391535   1.000000
     12        -37.390199   1.000000
     13        -36.356969   1.000000
     14        -36.356515   1.000000
     15        -36.298107   1.000000
     16        -36.297836   1.000000
     17        -36.277750   1.000000
     18        -36.277466   1.000000
     19        -15.613549   1.000000
     20        -14.681378   1.000000
     21        -14.664284   1.000000
     22        -14.578736   1.000000
     23        -14.438367   1.000000
     24        -14.208911   1.000000
     25        -14.139417   1.000000
     26        -14.066625   1.000000
     27        -13.999081   1.000000
     28        -13.977742   1.000000
     29        -13.967553   1.000000
     30        -13.885728   1.000000
     31         -7.544741   1.000000
     32         -6.410635   1.000000
     33         -2.185015   1.000000
     34         -2.138846   1.000000
     35         -1.964297   1.000000
     36         -1.818066   1.000000
     37         -1.714148   1.000000
     38         -1.561782   1.000000
     39         -1.536312   1.000000
     40         -1.452580   1.000000
     41         -1.281386   1.000000
     42         -1.041929   1.000000
     43         -1.003497   1.000000
     44         -0.932095   1.000000
     45         -0.841952   1.000000
     46         -0.725316   1.000000
     47         -0.575273   1.000000
     48         -0.413471   1.000000
     49         -0.308565   1.000000
     50         -0.275412   1.000000
     51          0.070201   1.000000
     52          0.090503   1.000000
     53          0.131553   1.000000
     54          0.272634   1.000000
     55          0.287623   1.000000
     56          0.458910   1.000000
     57          0.530279   1.000000
     58          0.562494   1.000000
     59          0.837089   1.000000
     60          0.940260   1.000000
     61          1.009481   1.000000
     62          1.097653   1.000000
     63          1.163107   1.000000
     64          1.186061   1.000000
     65          1.346233   1.000000
     66          1.453031   1.000000
     67          1.544901   1.000000
     68          1.587315   1.000000
     69          5.503583   0.000000
     70          5.578614   0.000000
     71          5.681679   0.000000
     72          5.717966   0.000000
     73          6.197840   0.000000
     74          6.208169   0.000000
     75          6.433951   0.000000
     76          6.484200   0.000000
     77          6.567260   0.000000
     78          6.581452   0.000000
     79          6.701506   0.000000
     80          6.834358   0.000000
     81          6.896981   0.000000
     82          7.065802   0.000000
     83          7.185473   0.000000
     84          7.887443   0.000000
     85          9.043364   0.000000
     86         10.344029   0.000000
     87         11.009736   0.000000
     88         11.058364   0.000000
     89         11.575704   0.000000
     90         11.822364   0.000000
     91         12.033953   0.000000
     92         12.060962   0.000000
     93         12.302179   0.000000
     94         12.748394   0.000000
     95         12.797917   0.000000
     96         13.044524   0.000000
     97         13.642248   0.000000
     98         13.977125   0.000000
     99         14.024316   0.000000
    100         14.457485   0.000000
    101         14.563018   0.000000
    102         14.721726   0.000000

  0.5000000E+00  0.1262379E-14  0.1262379E-14  0.1562500E-01
      1        -37.462322   1.000000
      2        -37.462121   1.000000
      3        -37.457948   1.000000
      4        -37.457740   1.000000
      5        -37.407844   1.000000
      6        -37.407743   1.000000
      7        -37.404592   1.000000
      8        -37.404486   1.000000
      9        -37.404253   1.000000
     10        -37.404067   1.000000
     11        -37.390899   1.000000
     12        -37.390719   1.000000
     13        -36.356891   1.000000
     14        -36.356580   1.000000
     15        -36.298090   1.000000
     16        -36.297819   1.000000
     17        -36.277825   1.000000
     18        -36.277551   1.000000
     19        -15.186620   1.000000
     20        -15.186442   1.000000
     21        -14.452538   1.000000
     22        -14.452377   1.000000
     23        -14.320166   1.000000
     24        -14.319992   1.000000
     25        -14.271917   1.000000
     26        -14.271756   1.000000
     27        -13.978498   1.000000
     28        -13.978401   1.000000
     29        -13.957329   1.000000
     30        -13.957150   1.000000
     31         -6.906833   1.000000
     32         -6.906567   1.000000
     33         -2.086620   1.000000
     34         -2.086573   1.000000
     35         -1.865940   1.000000
     36         -1.865885   1.000000
     37         -1.801152   1.000000
     38         -1.801070   1.000000
     39         -1.128381   1.000000
     40         -1.128370   1.000000
     41         -1.084426   1.000000
     42         -1.084361   1.000000
     43         -0.979736   1.000000
     44         -0.979704   1.000000
     45         -0.856978   1.000000
     46         -0.856918   1.000000
     47         -0.382436   1.000000
     48         -0.382399   1.000000
     49         -0.222290   1.000000
     50         -0.222240   1.000000
     51         -0.178767   1.000000
     52         -0.178729   1.000000
     53          0.119056   1.000000
     54          0.119196   1.000000
     55          0.393609   1.000000
     56          0.393718   1.000000
     57          0.723893   1.000000
     58          0.723947   1.000000
     59          0.835900   1.000000
     60          0.836011   1.000000
     61          0.869944   1.000000
     62          0.870072   1.000000
     63          1.041214   1.000000
     64          1.041337   1.000000
     65          1.228146   1.000000
     66          1.228281   1.000000
     67          1.484881   1.000000
     68          1.484953   1.000000
     69          5.583584   0.000000
     70          5.583753   0.000000
     71          5.638889   0.000000
     72          5.638978   0.000000
     73          6.123068   0.000000
     74          6.123121   0.000000
     75          6.598920   0.000000
     76          6.598971   0.000000
     77          6.705695   0.000000
     78          6.705868   0.000000
     79          6.775118   0.000000
     80          6.775196   0.000000
     81          7.129754   0.000000
     82          7.129891   0.000000
     83          7.275790   0.000000
     84          7.276041   0.000000
     85         10.123594   0.000000
     86         10.123767   0.000000
     87         11.321966   0.000000
     88         11.322106   0.000000
     89         11.875513   0.000000
     90         11.875627   0.000000
     91         11.901791   0.000000
     92         11.901820   0.000000
     93         12.381327   0.000000
     94         12.381402   0.000000
     95         12.661807   0.000000
     96         12.661837   0.000000
     97         13.899982   0.000000
     98         13.900081   0.000000
     99         14.435488   0.000000
    100         14.435604   0.000000
    101         14.705579   0.000000
    102         14.707499   0.000000

  0.1262379E-14  0.2500000E+00  0.1263112E-14  0.6250000E-01
      1        -37.462957   1.000000
      2        -37.461420   1.000000
      3        -37.458589   1.000000
      4        -37.457031   1.000000
      5        -37.409252   1.000000
      6        -37.406191   1.000000
      7        -37.406037   1.000000
      8        -37.405148   1.000000
      9        -37.404044   1.000000
     10        -37.402059   1.000000
     11        -37.391908   1.000000
     12        -37.389999   1.000000
     13        -36.356979   1.000000
     14        -36.356535   1.000000
     15        -36.298136   1.000000
     16        -36.297863   1.000000
     17        -36.277687   1.000000
     18        -36.277399   1.000000
     19        -15.757715   1.000000
     20        -14.842791   1.000000
     21        -14.594310   1.000000
     22        -14.538538   1.000000
     23        -14.421530   1.000000
     24        -14.123478   1.000000
     25        -14.091516   1.000000
     26        -14.070074   1.000000
     27        -13.995258   1.000000
     28        -13.929433   1.000000
     29        -13.872660   1.000000
     30        -13.867769   1.000000
     31         -7.847654   1.000000
     32         -6.255455   1.000000
     33         -2.457087   1.000000
     34         -2.350634   1.000000
     35         -1.895108   1.000000
     36         -1.751228   1.000000
     37         -1.617750   1.000000
     38         -1.452120   1.000000
     39         -1.401370   1.000000
     40         -1.341736   1.000000
     41         -1.258839   1.000000
     42         -1.088019   1.000000
     43         -1.050712   1.000000
     44         -1.020243   1.000000
     45         -0.874669   1.000000
     46         -0.770336   1.000000
     47         -0.675087   1.000000
     48         -0.510743   1.000000
     49         -0.495108   1.000000
     50         -0.392980   1.000000
     51         -0.196393   1.000000
     52         -0.084539   1.000000
     53          0.159735   1.000000
     54          0.175192   1.000000
     55          0.354018   1.000000
     56          0.570354   1.000000
     57          0.628218   1.000000
     58          0.702595   1.000000
     59          0.942903   1.000000
     60          1.087133   1.000000
     61          1.124578   1.000000
     62          1.256271   1.000000
     63          1.259819   1.000000
     64          1.394079   1.000000
     65          1.503349   1.000000
     66          1.603613   1.000000
     67          1.623590   1.000000
     68          1.869625   1.000000
     69          5.265368   0.000000
     70          5.531037   0.000000
     71          5.621509   0.000000
     72          5.637274   0.000000
     73          5.731278   0.000000
     74          6.201672   0.000000
     75          6.268937   0.000000
     76          6.470013   0.000000
     77          6.616535   0.000000
     78          6.728507   0.000000
     79          6.745180   0.000000
     80          6.781539   0.000000
     81          6.841716   0.000000
     82          7.100642   0.000000
     83          7.674693   0.000000
     84          7.991686   0.000000
     85          8.648220   0.000000
     86         10.028995   0.000000
     87         10.563584   0.000000
     88         10.861410   0.000000
     89         11.687179   0.000000
     90         11.791360   0.000000
     91         12.125020   0.000000
     92         12.307088   0.000000
     93         12.499765   0.000000
     94         12.557172   0.000000
     95         12.966286   0.000000
     96         13.189875   0.000000
     97         13.323137   0.000000
     98         14.094797   0.000000
     99         14.235843   0.000000
    100         14.302884   0.000000
    101         14.383464   0.000000
    102         14.639745   0.000000

  0.2500000E+00  0.2500000E+00  0.1263112E-14  0.1250000E+00
      1        -37.462751   1.000000
      2        -37.461655   1.000000
      3        -37.458381   1.000000
      4        -37.457272   1.000000
      5        -37.408778   1.000000
      6        -37.406817   1.000000
      7        -37.405509   1.000000
      8        -37.404805   1.000000
      9        -37.404220   1.000000
     10        -37.402710   1.000000
     11        -37.391558   1.000000
     12        -37.390217   1.000000
     13        -36.356945   1.000000
     14        -36.356563   1.000000
     15        -36.298113   1.000000
     16        -36.297841   1.000000
     17        -36.277749   1.000000
     18        -36.277470   1.000000
     19        -15.597361   1.000000
     20        -14.746944   1.000000
     21        -14.666531   1.000000
     22        -14.511702   1.000000
     23        -14.463545   1.000000
     24        -14.237518   1.000000
     25        -14.150950   1.000000
     26        -14.060279   1.000000
     27        -13.989813   1.000000
     28        -13.959613   1.000000
     29        -13.947699   1.000000
     30        -13.889121   1.000000
     31         -7.539235   1.000000
     32         -6.416360   1.000000
     33         -2.155611   1.000000
     34         -2.073004   1.000000
     35         -2.031642   1.000000
     36         -1.903013   1.000000
     37         -1.628521   1.000000
     38         -1.607477   1.000000
     39         -1.550191   1.000000
     40         -1.398982   1.000000
     41         -1.374882   1.000000
     42         -1.090496   1.000000
     43         -1.079078   1.000000
     44         -0.904006   1.000000
     45         -0.664500   1.000000
     46         -0.617618   1.000000
     47         -0.563594   1.000000
     48         -0.411575   1.000000
     49         -0.347605   1.000000
     50         -0.180735   1.000000
     51         -0.115380   1.000000
     52          0.055730   1.000000
     53          0.193779   1.000000
     54          0.256869   1.000000
     55          0.348634   1.000000
     56          0.445487   1.000000
     57          0.497435   1.000000
     58          0.634881   1.000000
     59          0.709919   1.000000
     60          0.842769   1.000000
     61          0.970155   1.000000
     62          1.068060   1.000000
     63          1.140223   1.000000
     64          1.294768   1.000000
     65          1.383410   1.000000
     66          1.484185   1.000000
     67          1.580220   1.000000
     68          1.614410   1.000000
     69          5.509169   0.000000
     70          5.582774   0.000000
     71          5.623575   0.000000
     72          5.704091   0.000000
     73          5.975298   0.000000
     74          6.362093   0.000000
     75          6.427847   0.000000
     76          6.502737   0.000000
     77          6.528985   0.000000
     78          6.575763   0.000000
     79          6.751337   0.000000
     80          6.797583   0.000000
     81          6.909263   0.000000
     82          7.028184   0.000000
     83          7.202845   0.000000
     84          7.923951   0.000000
     85          9.284873   0.000000
     86         10.395055   0.000000
     87         10.815867   0.000000
     88         11.287795   0.000000
     89         11.442018   0.000000
     90         11.752399   0.000000
     91         11.931679   0.000000
     92         12.273658   0.000000
     93         12.344802   0.000000
     94         12.439316   0.000000
     95         12.693533   0.000000
     96         13.010555   0.000000
     97         13.553698   0.000000
     98         14.100954   0.000000
     99         14.142460   0.000000
    100         14.381331   0.000000
    101         14.747669   0.000000
    102         14.778359   0.000000

  0.5000000E+00  0.2500000E+00  0.1263112E-14  0.6250000E-01
      1        -37.462316   1.000000
      2        -37.462114   1.000000
      3        -37.457944   1.000000
      4        -37.457737   1.000000
      5        -37.407841   1.000000
      6        -37.407739   1.000000
      7        -37.404572   1.000000
      8        -37.404468   1.000000
      9        -37.404255   1.000000
     10        -37.404070   1.000000
     11        -37.390916   1.000000
     12        -37.390735   1.000000
     13        -36.356893   1.000000
     14        -36.356582   1.000000
     15        -36.298088   1.000000
     16        -36.297817   1.000000
     17        -36.277816   1.000000
     18        -36.277542   1.000000
     19        -15.171181   1.000000
     20        -15.171002   1.000000
     21        -14.504192   1.000000
     22        -14.504024   1.000000
     23        -14.328658   1.000000
     24        -14.328539   1.000000
     25        -14.242973   1.000000
     26        -14.242864   1.000000
     27        -13.974803   1.000000
     28        -13.974728   1.000000
     29        -13.944858   1.000000
     30        -13.944666   1.000000
     31         -6.906953   1.000000
     32         -6.906687   1.000000
     33         -2.100141   1.000000
     34         -2.100106   1.000000
     35         -1.868144   1.000000
     36         -1.868089   1.000000
     37         -1.672298   1.000000
     38         -1.672259   1.000000
     39         -1.384153   1.000000
     40         -1.384098   1.000000
     41         -1.088596   1.000000
     42         -1.088552   1.000000
     43         -0.887438   1.000000
     44         -0.887370   1.000000
     45         -0.642963   1.000000
     46         -0.642928   1.000000
     47         -0.451641   1.000000
     48         -0.451599   1.000000
     49         -0.350610   1.000000
     50         -0.350581   1.000000
     51         -0.124458   1.000000
     52         -0.124429   1.000000
     53          0.131170   1.000000
     54          0.131258   1.000000
     55          0.374560   1.000000
     56          0.374624   1.000000
     57          0.550578   1.000000
     58          0.550629   1.000000
     59          0.811131   1.000000
     60          0.811199   1.000000
     61          0.932513   1.000000
     62          0.932604   1.000000
     63          1.131742   1.000000
     64          1.131808   1.000000
     65          1.283765   1.000000
     66          1.283887   1.000000
     67          1.455377   1.000000
     68          1.455442   1.000000
     69          5.532838   0.000000
     70          5.533004   0.000000
     71          5.698703   0.000000
     72          5.698820   0.000000
     73          6.186677   0.000000
     74          6.186745   0.000000
     75          6.566657   0.000000
     76          6.566715   0.000000
     77          6.685603   0.000000
     78          6.685765   0.000000
     79          6.768549   0.000000
     80          6.768668   0.000000
     81          7.107402   0.000000
     82          7.107548   0.000000
     83          7.305730   0.000000
     84          7.305908   0.000000
     85         10.060698   0.000000
     86         10.060898   0.000000
     87         11.290453   0.000000
     88         11.290547   0.000000
     89         11.846664   0.000000
     90         11.846773   0.000000
     91         12.094434   0.000000
     92         12.094449   0.000000
     93         12.236692   0.000000
     94         12.236801   0.000000
     95         12.677940   0.000000
     96         12.677987   0.000000
     97         13.887943   0.000000
     98         13.888038   0.000000
     99         14.333161   0.000000
    100         14.333318   0.000000
    101         14.779231   0.000000
    102         14.784384   0.000000

  0.1262379E-14  0.5000000E+00  0.1262414E-14  0.3125000E-01
      1        -37.462936   1.000000
      2        -37.461436   1.000000
      3        -37.458605   1.000000
      4        -37.457014   1.000000
      5        -37.409241   1.000000
      6        -37.406163   1.000000
      7        -37.406051   1.000000
      8        -37.405155   1.000000
      9        -37.404043   1.000000
     10        -37.402059   1.000000
     11        -37.391933   1.000000
     12        -37.390020   1.000000
     13        -36.356928   1.000000
     14        -36.356617   1.000000
     15        -36.298146   1.000000
     16        -36.297871   1.000000
     17        -36.277685   1.000000
     18        -36.277411   1.000000
     19        -15.740372   1.000000
     20        -14.894208   1.000000
     21        -14.605250   1.000000
     22        -14.512067   1.000000
     23        -14.408513   1.000000
     24        -14.132559   1.000000
     25        -14.105790   1.000000
     26        -14.087095   1.000000
     27        -13.929622   1.000000
     28        -13.929572   1.000000
     29        -13.914921   1.000000
     30        -13.844852   1.000000
     31         -7.840513   1.000000
     32         -6.262035   1.000000
     33         -2.467187   1.000000
     34         -2.292438   1.000000
     35         -1.886405   1.000000
     36         -1.829886   1.000000
     37         -1.747493   1.000000
     38         -1.464487   1.000000
     39         -1.440556   1.000000
     40         -1.414670   1.000000
     41         -1.238222   1.000000
     42         -1.056117   1.000000
     43         -1.004496   1.000000
     44         -0.940245   1.000000
     45         -0.856288   1.000000
     46         -0.703459   1.000000
     47         -0.529277   1.000000
     48         -0.504788   1.000000
     49         -0.497389   1.000000
     50         -0.342853   1.000000
     51         -0.332781   1.000000
     52         -0.157637   1.000000
     53          0.225991   1.000000
     54          0.243256   1.000000
     55          0.451753   1.000000
     56          0.465291   1.000000
     57          0.607527   1.000000
     58          0.691524   1.000000
     59          0.916516   1.000000
     60          0.977602   1.000000
     61          1.136314   1.000000
     62          1.273930   1.000000
     63          1.292290   1.000000
     64          1.358165   1.000000
     65          1.513769   1.000000
     66          1.641566   1.000000
     67          1.665316   1.000000
     68          1.883516   1.000000
     69          5.125580   0.000000
     70          5.559556   0.000000
     71          5.563597   0.000000
     72          5.659823   0.000000
     73          5.674344   0.000000
     74          6.207191   0.000000
     75          6.224086   0.000000
     76          6.459149   0.000000
     77          6.581416   0.000000
     78          6.631448   0.000000
     79          6.711892   0.000000
     80          6.803949   0.000000
     81          6.828175   0.000000
     82          7.119052   0.000000
     83          7.682187   0.000000
     84          7.972003   0.000000
     85          9.400191   0.000000
     86          9.811527   0.000000
     87         10.783856   0.000000
     88         11.151219   0.000000
     89         11.414178   0.000000
     90         11.728448   0.000000
     91         11.868721   0.000000
     92         11.940678   0.000000
     93         12.226243   0.000000
     94         12.807817   0.000000
     95         13.146885   0.000000
     96         13.152521   0.000000
     97         13.416362   0.000000
     98         13.611444   0.000000
     99         14.401199   0.000000
    100         14.550418   0.000000
    101         14.570822   0.000000
    102         14.632123   0.000000

  0.2500000E+00  0.5000000E+00  0.1262414E-14  0.6250000E-01
      1        -37.462732   1.000000
      2        -37.461662   1.000000
      3        -37.458388   1.000000
      4        -37.457257   1.000000
      5        -37.408769   1.000000
      6        -37.406809   1.000000
      7        -37.405517   1.000000
      8        -37.404790   1.000000
      9        -37.404209   1.000000
     10        -37.402710   1.000000
     11        -37.391580   1.000000
     12        -37.390234   1.000000
     13        -36.356911   1.000000
     14        -36.356600   1.000000
     15        -36.298116   1.000000
     16        -36.297843   1.000000
     17        -36.277744   1.000000
     18        -36.277471   1.000000
     19        -15.580179   1.000000
     20        -14.794675   1.000000
     21        -14.651052   1.000000
     22        -14.531680   1.000000
     23        -14.431709   1.000000
     24        -14.264571   1.000000
     25        -14.166897   1.000000
     26        -14.049299   1.000000
     27        -13.988037   1.000000
     28        -13.934254   1.000000
     29        -13.929692   1.000000
     30        -13.898183   1.000000
     31         -7.533653   1.000000
     32         -6.422079   1.000000
     33         -2.155618   1.000000
     34         -2.089979   1.000000
     35         -2.004775   1.000000
     36         -1.889959   1.000000
     37         -1.774560   1.000000
     38         -1.614904   1.000000
     39         -1.527705   1.000000
     40         -1.377870   1.000000
     41         -1.226818   1.000000
     42         -1.123467   1.000000
     43         -0.973737   1.000000
     44         -0.972584   1.000000
     45         -0.731907   1.000000
     46         -0.589839   1.000000
     47         -0.528718   1.000000
     48         -0.399638   1.000000
     49         -0.376884   1.000000
     50         -0.267920   1.000000
     51          0.030265   1.000000
     52          0.100597   1.000000
     53          0.136660   1.000000
     54          0.152329   1.000000
     55          0.261339   1.000000
     56          0.461794   1.000000
     57          0.564208   1.000000
     58          0.595211   1.000000
     59          0.776783   1.000000
     60          0.853749   1.000000
     61          0.891003   1.000000
     62          1.098674   1.000000
     63          1.139904   1.000000
     64          1.229407   1.000000
     65          1.424448   1.000000
     66          1.471747   1.000000
     67          1.634073   1.000000
     68          1.653217   1.000000
     69          5.430755   0.000000
     70          5.588926   0.000000
     71          5.631627   0.000000
     72          5.688956   0.000000
     73          5.937957   0.000000
     74          6.399022   0.000000
     75          6.402514   0.000000
     76          6.486704   0.000000
     77          6.526563   0.000000
     78          6.609117   0.000000