------------------------------------------------------------
          Invoking FHI-aims ...

          When using FHI-aims, please cite the following reference:

            Volker Blum, Ralf Gehrke, Felix Hanke, Paula Havu,
            Ville Havu, Xinguo Ren, Karsten Reuter, and Matthias Scheffler,
            'Ab Initio Molecular Simulations with Numeric Atom-Centered Orbitals',
            Computer Physics Communications 180, 2175-2196 (2009)

          In addition, many other developments in FHI-aims are likely important for
          your particular application. A partial list of references is given at the end of
          this file. Thank you for giving credit to the authors of these developments.

          For any questions about FHI-aims, please visit our slack channel at

            https://fhi-aims.slack.com

          and our main development and support site at

            https://aims-git.rz-berlin.mpg.de .

          The latter site, in particular, has a wiki to collect information, as well
          as an issue tracker to log discussions, suggest improvements, and report issues
          or bugs. https://aims-git.rz-berlin.mpg.de is also the main development site
          of the project and all new and updated code versions can be obtained there.
          Please send an email to aims-coordinators@fhi-berlin.mpg.de and we will add
          you to these sites. They are for you and everyone is welcome there.

------------------------------------------------------------



  Date     :  20210918, Time     :  215943.358
  Time zero on CPU 1             :   0.219072000000000E+00  s.
  Internal wall clock time zero  :           401234383.358  s.

  FHI-aims created a unique identifier for this run for later identification
  aims_uuid : 4C473C08-DF5E-4CB4-A47B-3970B97A6A78

  Build configuration of the current instance of FHI-aims
  -------------------------------------------------------
  FHI-aims version      : 210716.2
  Commit number         : GITDIR-NOTFOUND
  CMake host system     : Linux-4.12.14-122.80-default
  CMake version         : 3.5.2
  Fortran compiler      : /mpcdf/soft/SLE_12/packages/x86_64/intel_parallel_studio/2020.1/compilers_and_libraries_2020.1.217/linux/mpi/intel64/bin/mpiifort (Intel) version 19.1.0.20200306
  Fortran compiler flags: -O3 -ip -fp-model precise -O3
  C compiler            : /mpcdf/soft/SLE_12/packages/x86_64/intel/19.1.1/bin/icc (Intel) version 19.1.0.20200306
  C compiler flags      : -O3 -ip -fp-model precise -std=gnu99 -O3 -DNDEBUG
  ELPA2 kernel          : AVX2
  Using MPI
  Using ScaLAPACK
  Using LibXC
  Using i-PI
  Using RLSY
  Linking against: /mpcdf/soft/SLE_12/packages/x86_64/intel_parallel_studio/2020.1/mkl/lib/intel64/libmkl_intel_lp64.so
                   /mpcdf/soft/SLE_12/packages/x86_64/intel_parallel_studio/2020.1/mkl/lib/intel64/libmkl_sequential.so
                   /mpcdf/soft/SLE_12/packages/x86_64/intel_parallel_studio/2020.1/mkl/lib/intel64/libmkl_core.so
                   /mpcdf/soft/SLE_12/packages/x86_64/intel_parallel_studio/2020.1/mkl/lib/intel64/libmkl_blacs_intelmpi_lp64.so
                   /mpcdf/soft/SLE_12/packages/x86_64/intel_parallel_studio/2020.1/mkl/lib/intel64/libmkl_scalapack_lp64.so

  Using      400 parallel tasks.
  Task        0 on host co5534 reporting.
  Task        1 on host co5534 reporting.
  Task        2 on host co5534 reporting.
  Task        3 on host co5534 reporting.
  Task        4 on host co5534 reporting.
  Task        5 on host co5534 reporting.
  Task        6 on host co5534 reporting.
  Task        7 on host co5534 reporting.
  Task        8 on host co5534 reporting.
  Task        9 on host co5534 reporting.
  Task       10 on host co5534 reporting.
  Task       11 on host co5534 reporting.
  Task       12 on host co5534 reporting.
  Task       13 on host co5534 reporting.
  Task       14 on host co5534 reporting.
  Task       15 on host co5534 reporting.
  Task       16 on host co5534 reporting.
  Task       17 on host co5534 reporting.
  Task       18 on host co5534 reporting.
  Task       19 on host co5534 reporting.
  Task       20 on host co5534 reporting.
  Task       21 on host co5534 reporting.
  Task       22 on host co5534 reporting.
  Task       23 on host co5534 reporting.
  Task       24 on host co5534 reporting.
  Task       25 on host co5534 reporting.
  Task       26 on host co5534 reporting.
  Task       27 on host co5534 reporting.
  Task       28 on host co5534 reporting.
  Task       29 on host co5534 reporting.
  Task       30 on host co5534 reporting.
  Task       31 on host co5534 reporting.
  Task       32 on host co5534 reporting.
  Task       33 on host co5534 reporting.
  Task       34 on host co5534 reporting.
  Task       35 on host co5534 reporting.
  Task       36 on host co5534 reporting.
  Task       37 on host co5534 reporting.
  Task       38 on host co5534 reporting.
  Task       39 on host co5534 reporting.
  Task       40 on host co5535 reporting.
  Task       41 on host co5535 reporting.
  Task       42 on host co5535 reporting.
  Task       43 on host co5535 reporting.
  Task       44 on host co5535 reporting.
  Task       45 on host co5535 reporting.
  Task       46 on host co5535 reporting.
  Task       47 on host co5535 reporting.
  Task       48 on host co5535 reporting.
  Task       49 on host co5535 reporting.
  Task       50 on host co5535 reporting.
  Task       51 on host co5535 reporting.
  Task       52 on host co5535 reporting.
  Task       53 on host co5535 reporting.
  Task       54 on host co5535 reporting.
  Task       55 on host co5535 reporting.
  Task       56 on host co5535 reporting.
  Task       57 on host co5535 reporting.
  Task       58 on host co5535 reporting.
  Task       59 on host co5535 reporting.
  Task       60 on host co5535 reporting.
  Task       61 on host co5535 reporting.
  Task       62 on host co5535 reporting.
  Task       63 on host co5535 reporting.
  Task       64 on host co5535 reporting.
  Task       65 on host co5535 reporting.
  Task       66 on host co5535 reporting.
  Task       67 on host co5535 reporting.
  Task       68 on host co5535 reporting.
  Task       69 on host co5535 reporting.
  Task       70 on host co5535 reporting.
  Task       71 on host co5535 reporting.
  Task       72 on host co5535 reporting.
  Task       73 on host co5535 reporting.
  Task       74 on host co5535 reporting.
  Task       75 on host co5535 reporting.
  Task       76 on host co5535 reporting.
  Task       77 on host co5535 reporting.
  Task       78 on host co5535 reporting.
  Task       79 on host co5535 reporting.
  Task       80 on host co5536 reporting.
  Task       81 on host co5536 reporting.
  Task       82 on host co5536 reporting.
  Task       83 on host co5536 reporting.
  Task       84 on host co5536 reporting.
  Task       85 on host co5536 reporting.
  Task       86 on host co5536 reporting.
  Task       87 on host co5536 reporting.
  Task       88 on host co5536 reporting.
  Task       89 on host co5536 reporting.
  Task       90 on host co5536 reporting.
  Task       91 on host co5536 reporting.
  Task       92 on host co5536 reporting.
  Task       93 on host co5536 reporting.
  Task       94 on host co5536 reporting.
  Task       95 on host co5536 reporting.
  Task       96 on host co5536 reporting.
  Task       97 on host co5536 reporting.
  Task       98 on host co5536 reporting.
  Task       99 on host co5536 reporting.
  Task      100 on host co5536 reporting.
  Task      101 on host co5536 reporting.
  Task      102 on host co5536 reporting.
  Task      103 on host co5536 reporting.
  Task      104 on host co5536 reporting.
  Task      105 on host co5536 reporting.
  Task      106 on host co5536 reporting.
  Task      107 on host co5536 reporting.
  Task      108 on host co5536 reporting.
  Task      109 on host co5536 reporting.
  Task      110 on host co5536 reporting.
  Task      111 on host co5536 reporting.
  Task      112 on host co5536 reporting.
  Task      113 on host co5536 reporting.
  Task      114 on host co5536 reporting.
  Task      115 on host co5536 reporting.
  Task      116 on host co5536 reporting.
  Task      117 on host co5536 reporting.
  Task      118 on host co5536 reporting.
  Task      119 on host co5536 reporting.
  Task      120 on host co5537 reporting.
  Task      121 on host co5537 reporting.
  Task      122 on host co5537 reporting.
  Task      123 on host co5537 reporting.
  Task      124 on host co5537 reporting.
  Task      125 on host co5537 reporting.
  Task      126 on host co5537 reporting.
  Task      127 on host co5537 reporting.
  Task      128 on host co5537 reporting.
  Task      129 on host co5537 reporting.
  Task      130 on host co5537 reporting.
  Task      131 on host co5537 reporting.
  Task      132 on host co5537 reporting.
  Task      133 on host co5537 reporting.
  Task      134 on host co5537 reporting.
  Task      135 on host co5537 reporting.
  Task      136 on host co5537 reporting.
  Task      137 on host co5537 reporting.
  Task      138 on host co5537 reporting.
  Task      139 on host co5537 reporting.
  Task      140 on host co5537 reporting.
  Task      141 on host co5537 reporting.
  Task      142 on host co5537 reporting.
  Task      143 on host co5537 reporting.
  Task      144 on host co5537 reporting.
  Task      145 on host co5537 reporting.
  Task      146 on host co5537 reporting.
  Task      147 on host co5537 reporting.
  Task      148 on host co5537 reporting.
  Task      149 on host co5537 reporting.
  Task      150 on host co5537 reporting.
  Task      151 on host co5537 reporting.
  Task      152 on host co5537 reporting.
  Task      153 on host co5537 reporting.
  Task      154 on host co5537 reporting.
  Task      155 on host co5537 reporting.
  Task      156 on host co5537 reporting.
  Task      157 on host co5537 reporting.
  Task      158 on host co5537 reporting.
  Task      159 on host co5537 reporting.
  Task      160 on host co5538 reporting.
  Task      161 on host co5538 reporting.
  Task      162 on host co5538 reporting.
  Task      163 on host co5538 reporting.
  Task      164 on host co5538 reporting.
  Task      165 on host co5538 reporting.
  Task      166 on host co5538 reporting.
  Task      167 on host co5538 reporting.
  Task      168 on host co5538 reporting.
  Task      169 on host co5538 reporting.
  Task      170 on host co5538 reporting.
  Task      171 on host co5538 reporting.
  Task      172 on host co5538 reporting.
  Task      173 on host co5538 reporting.
  Task      174 on host co5538 reporting.
  Task      175 on host co5538 reporting.
  Task      176 on host co5538 reporting.
  Task      177 on host co5538 reporting.
  Task      178 on host co5538 reporting.
  Task      179 on host co5538 reporting.
  Task      180 on host co5538 reporting.
  Task      181 on host co5538 reporting.
  Task      182 on host co5538 reporting.
  Task      183 on host co5538 reporting.
  Task      184 on host co5538 reporting.
  Task      185 on host co5538 reporting.
  Task      186 on host co5538 reporting.
  Task      187 on host co5538 reporting.
  Task      188 on host co5538 reporting.
  Task      189 on host co5538 reporting.
  Task      190 on host co5538 reporting.
  Task      191 on host co5538 reporting.
  Task      192 on host co5538 reporting.
  Task      193 on host co5538 reporting.
  Task      194 on host co5538 reporting.
  Task      195 on host co5538 reporting.
  Task      196 on host co5538 reporting.
  Task      197 on host co5538 reporting.
  Task      198 on host co5538 reporting.
  Task      199 on host co5538 reporting.
  Task      200 on host co5541 reporting.
  Task      201 on host co5541 reporting.
  Task      202 on host co5541 reporting.
  Task      203 on host co5541 reporting.
  Task      204 on host co5541 reporting.
  Task      205 on host co5541 reporting.
  Task      206 on host co5541 reporting.
  Task      207 on host co5541 reporting.
  Task      208 on host co5541 reporting.
  Task      209 on host co5541 reporting.
  Task      210 on host co5541 reporting.
  Task      211 on host co5541 reporting.
  Task      212 on host co5541 reporting.
  Task      213 on host co5541 reporting.
  Task      214 on host co5541 reporting.
  Task      215 on host co5541 reporting.
  Task      216 on host co5541 reporting.
  Task      217 on host co5541 reporting.
  Task      218 on host co5541 reporting.
  Task      219 on host co5541 reporting.
  Task      220 on host co5541 reporting.
  Task      221 on host co5541 reporting.
  Task      222 on host co5541 reporting.
  Task      223 on host co5541 reporting.
  Task      224 on host co5541 reporting.
  Task      225 on host co5541 reporting.
  Task      226 on host co5541 reporting.
  Task      227 on host co5541 reporting.
  Task      228 on host co5541 reporting.
  Task      229 on host co5541 reporting.
  Task      230 on host co5541 reporting.
  Task      231 on host co5541 reporting.
  Task      232 on host co5541 reporting.
  Task      233 on host co5541 reporting.
  Task      234 on host co5541 reporting.
  Task      235 on host co5541 reporting.
  Task      236 on host co5541 reporting.
  Task      237 on host co5541 reporting.
  Task      238 on host co5541 reporting.
  Task      239 on host co5541 reporting.
  Task      240 on host co5542 reporting.
  Task      241 on host co5542 reporting.
  Task      242 on host co5542 reporting.
  Task      243 on host co5542 reporting.
  Task      244 on host co5542 reporting.
  Task      245 on host co5542 reporting.
  Task      246 on host co5542 reporting.
  Task      247 on host co5542 reporting.
  Task      248 on host co5542 reporting.
  Task      249 on host co5542 reporting.
  Task      250 on host co5542 reporting.
  Task      251 on host co5542 reporting.
  Task      252 on host co5542 reporting.
  Task      253 on host co5542 reporting.
  Task      254 on host co5542 reporting.
  Task      255 on host co5542 reporting.
  Task      256 on host co5542 reporting.
  Task      257 on host co5542 reporting.
  Task      258 on host co5542 reporting.
  Task      259 on host co5542 reporting.
  Task      260 on host co5542 reporting.
  Task      261 on host co5542 reporting.
  Task      262 on host co5542 reporting.
  Task      263 on host co5542 reporting.
  Task      264 on host co5542 reporting.
  Task      265 on host co5542 reporting.
  Task      266 on host co5542 reporting.
  Task      267 on host co5542 reporting.
  Task      268 on host co5542 reporting.
  Task      269 on host co5542 reporting.
  Task      270 on host co5542 reporting.
  Task      271 on host co5542 reporting.
  Task      272 on host co5542 reporting.
  Task      273 on host co5542 reporting.
  Task      274 on host co5542 reporting.
  Task      275 on host co5542 reporting.
  Task      276 on host co5542 reporting.
  Task      277 on host co5542 reporting.
  Task      278 on host co5542 reporting.
  Task      279 on host co5542 reporting.
  Task      280 on host co5543 reporting.
  Task      281 on host co5543 reporting.
  Task      282 on host co5543 reporting.
  Task      283 on host co5543 reporting.
  Task      284 on host co5543 reporting.
  Task      285 on host co5543 reporting.
  Task      286 on host co5543 reporting.
  Task      287 on host co5543 reporting.
  Task      288 on host co5543 reporting.
  Task      289 on host co5543 reporting.
  Task      290 on host co5543 reporting.
  Task      291 on host co5543 reporting.
  Task      292 on host co5543 reporting.
  Task      293 on host co5543 reporting.
  Task      294 on host co5543 reporting.
  Task      295 on host co5543 reporting.
  Task      296 on host co5543 reporting.
  Task      297 on host co5543 reporting.
  Task      298 on host co5543 reporting.
  Task      299 on host co5543 reporting.
  Task      300 on host co5543 reporting.
  Task      301 on host co5543 reporting.
  Task      302 on host co5543 reporting.
  Task      303 on host co5543 reporting.
  Task      304 on host co5543 reporting.
  Task      305 on host co5543 reporting.
  Task      306 on host co5543 reporting.
  Task      307 on host co5543 reporting.
  Task      308 on host co5543 reporting.
  Task      309 on host co5543 reporting.
  Task      310 on host co5543 reporting.
  Task      311 on host co5543 reporting.
  Task      312 on host co5543 reporting.
  Task      313 on host co5543 reporting.
  Task      314 on host co5543 reporting.
  Task      315 on host co5543 reporting.
  Task      316 on host co5543 reporting.
  Task      317 on host co5543 reporting.
  Task      318 on host co5543 reporting.
  Task      319 on host co5543 reporting.
  Task      320 on host co5544 reporting.
  Task      321 on host co5544 reporting.
  Task      322 on host co5544 reporting.
  Task      323 on host co5544 reporting.
  Task      324 on host co5544 reporting.
  Task      325 on host co5544 reporting.
  Task      326 on host co5544 reporting.
  Task      327 on host co5544 reporting.
  Task      328 on host co5544 reporting.
  Task      329 on host co5544 reporting.
  Task      330 on host co5544 reporting.
  Task      331 on host co5544 reporting.
  Task      332 on host co5544 reporting.
  Task      333 on host co5544 reporting.
  Task      334 on host co5544 reporting.
  Task      335 on host co5544 reporting.
  Task      336 on host co5544 reporting.
  Task      337 on host co5544 reporting.
  Task      338 on host co5544 reporting.
  Task      339 on host co5544 reporting.
  Task      340 on host co5544 reporting.
  Task      341 on host co5544 reporting.
  Task      342 on host co5544 reporting.
  Task      343 on host co5544 reporting.
  Task      344 on host co5544 reporting.
  Task      345 on host co5544 reporting.
  Task      346 on host co5544 reporting.
  Task      347 on host co5544 reporting.
  Task      348 on host co5544 reporting.
  Task      349 on host co5544 reporting.
  Task      350 on host co5544 reporting.
  Task      351 on host co5544 reporting.
  Task      352 on host co5544 reporting.
  Task      353 on host co5544 reporting.
  Task      354 on host co5544 reporting.
  Task      355 on host co5544 reporting.
  Task      356 on host co5544 reporting.
  Task      357 on host co5544 reporting.
  Task      358 on host co5544 reporting.
  Task      359 on host co5544 reporting.
  Task      360 on host co5545 reporting.
  Task      361 on host co5545 reporting.
  Task      362 on host co5545 reporting.
  Task      363 on host co5545 reporting.
  Task      364 on host co5545 reporting.
  Task      365 on host co5545 reporting.
  Task      366 on host co5545 reporting.
  Task      367 on host co5545 reporting.
  Task      368 on host co5545 reporting.
  Task      369 on host co5545 reporting.
  Task      370 on host co5545 reporting.
  Task      371 on host co5545 reporting.
  Task      372 on host co5545 reporting.
  Task      373 on host co5545 reporting.
  Task      374 on host co5545 reporting.
  Task      375 on host co5545 reporting.
  Task      376 on host co5545 reporting.
  Task      377 on host co5545 reporting.
  Task      378 on host co5545 reporting.
  Task      379 on host co5545 reporting.
  Task      380 on host co5545 reporting.
  Task      381 on host co5545 reporting.
  Task      382 on host co5545 reporting.
  Task      383 on host co5545 reporting.
  Task      384 on host co5545 reporting.
  Task      385 on host co5545 reporting.
  Task      386 on host co5545 reporting.
  Task      387 on host co5545 reporting.
  Task      388 on host co5545 reporting.
  Task      389 on host co5545 reporting.
  Task      390 on host co5545 reporting.
  Task      391 on host co5545 reporting.
  Task      392 on host co5545 reporting.
  Task      393 on host co5545 reporting.
  Task      394 on host co5545 reporting.
  Task      395 on host co5545 reporting.
  Task      396 on host co5545 reporting.
  Task      397 on host co5545 reporting.
  Task      398 on host co5545 reporting.
  Task      399 on host co5545 reporting.

  Performing system and environment tests:
  | Environment variable OMP_NUM_THREADS correctly set to 1.
  | Checking for ScaLAPACK...
  | Testing pdtran()...
  | All pdtran() tests passed.

  Obtaining array dimensions for all initial allocations:
  
  -----------------------------------------------------------------------
  Parsing control.in (first pass over file, find array dimensions only).
  The contents of control.in will be repeated verbatim below
  unless switched off by setting 'verbatim_writeout .false.' .
  in the first line of control.in .
  -----------------------------------------------------------------------
  
  xc                pbe
  relativistic      atomic_zora scalar
  qpe_calc          gw_expt
  frequency_points  40
  anacon_type       0
  k_grid            8 8 8
  output                     band   0.00000  0.00000  0.00000   0.50000  0.00000  0.50000   17 G  X
  output                     band   0.50000  0.00000  0.50000   0.50000  0.25000  0.75000   8 X  W
  output                     band   0.50000  0.25000  0.75000   0.37500  0.37500  0.75000   6 W  K
  output                     band   0.37500  0.37500  0.75000   0.00000  0.00000  0.00000   18 K  G
  output                     band   0.00000  0.00000  0.00000   0.50000  0.50000  0.50000   15 G  L
  output                     band   0.50000  0.50000  0.50000   0.62500  0.25000  0.62500   10 L  U
  output                     band   0.62500  0.25000  0.62500   0.50000  0.25000  0.75000   6 U  W
  output                     band   0.50000  0.25000  0.75000   0.50000  0.50000  0.50000   12 W  L
  output                     band   0.50000  0.50000  0.50000   0.37500  0.37500  0.75000   10 L  K
  output                     band   0.62500  0.25000  0.62500   0.50000  0.00000  0.50000   6 U  X
  periodic_gw_optimize inverse
  #restart restartfile
  #restart_periodic_gw  Periodic_GW
  
  ################################################################################
  #
  #  FHI-aims code project
  #  Volker Blum, Fritz Haber Institute Berlin, 2009
  #
  #  Suggested "tight" defaults for Si atom (to be pasted into control.in file)
  #
  #  Revised Jan 04, 2011, following tests (SiC) done by Lydia Nemec:
  #     d and g functions of tier 2 now enabled by default.
  #
  ################################################################################
    species        Si
  #     global species definitions
      nucleus             14
      mass                28.0855
  #
      l_hartree           6
  #
      cut_pot             4.0          2.0  1.0
      basis_dep_cutoff    1e-4
  #
      radial_base         42 7.0
      radial_multiplier   2
      angular_grids       specified
        division   0.4121   50
        division   0.7665  110
        division   1.0603  194
        division   1.2846  302
        division   1.4125  434
  #      division   1.4810  590
  #      division   1.5529  770
  #      division   1.6284  974
  #      division   2.6016 1202
  #      outer_grid   974
        outer_grid  434
  ################################################################################
  #
  #  Definition of "minimal" basis
  #
  ################################################################################
  #     valence basis states
      valence      3  s   2.
      valence      3  p   2.
  #     ion occupancy
      ion_occ      3  s   1.
      ion_occ      3  p   1.
  ################################################################################
  #
  #  Suggested additional basis functions. For production calculations,
  #  uncomment them one after another (the most important basis functions are
  #  listed first).
  #
  #  Constructed for dimers: 1.75 A, 2.0 A, 2.25 A, 2.75 A, 3.75 A
  #
  ################################################################################
  #  "First tier" - improvements: -571.96 meV to -37.03 meV
       hydro 3 d 4.2
       hydro 2 p 1.4
       hydro 4 f 6.2
       ionic 3 s auto
  #  "Second tier" - improvements: -16.76 meV to -3.03 meV
       hydro 3 d 9
       hydro 5 g 9.4
  #     hydro 4 p 4
  #     hydro 1 s 0.65
  #  "Third tier" - improvements: -3.89 meV to -0.60 meV
  #     ionic 3 d auto
  #     hydro 3 s 2.6
  #     hydro 4 f 8.4
  #     hydro 3 d 3.4
  #     hydro 3 p 7.8
  #  "Fourth tier" - improvements: -0.33 meV to -0.11 meV
  #     hydro 2 p 1.6
  #     hydro 5 g 10.8
  #     hydro 5 f 11.2
  #     hydro 3 d 1
  #     hydro 4 s 4.5
  #  Further basis functions that fell out of the optimization - noise
  #  level... < -0.08 meV
  #     hydro 4 d 6.6
  #     hydro 5 g 16.4
  #     hydro 4 d 9
  ################################################################################
  #
  # For methods that use the localized form of the "resolution of identity" for
  # the two-electron Coulomb operator (RI_method LVL), particularly Hartree-Fock and
  # hybrid density functional calculations, the highest accuracy can be obtained by
  # uncommenting the line beginning with "for_aux"  below, thus adding an extra g radial
  # function to the construction of the product basis set for the expansion.
  # See Ref. New J. Phys. 17, 093020 (2015) for more information, particularly Figs. 1 and 6.
  #
  ################################################################################
  #
  # for_aux hydro 5 g 6.0
  
  
  
  
  -----------------------------------------------------------------------
  Completed first pass over input file control.in .
  -----------------------------------------------------------------------
  
  
  -----------------------------------------------------------------------
  Parsing geometry.in (first pass over file, find array dimensions only).
  The contents of geometry.in will be repeated verbatim below
  unless switched off by setting 'verbatim_writeout .false.' .
  in the first line of geometry.in .
  -----------------------------------------------------------------------
  
  #
  # This is the geometry file that corresponds to the current relaxation step.
  # If you do not want this file to be written, set the "write_restart_geometry" flag to .false.
  #  aims_uuid : A88509E5-494D-4CC8-A2FD-0B0E44972FCF
  #
  lattice_vector      0.00013684      2.72413122      2.72426803
  lattice_vector      2.72413117      0.00013679      2.72426800
  lattice_vector      2.72385756      2.72385758     -0.00027363
  atom_frac       0.00000000     -0.00000000     -0.00000000 Si
  atom_frac       0.25000000      0.25000000      0.25000000 Si
  #
  # What follows is the current estimated Hessian matrix constructed by the BFGS algorithm.
  # This is NOT the true Hessian matrix of the system.
  # If you do not want this information here, switch it off using the "hessian_to_restart_geometry" keyword.
  #
  #trust_radius             0.2000000030
  #hessian_file
  
  -----------------------------------------------------------------------
  Completed first pass over input file geometry.in .
  -----------------------------------------------------------------------
  

  Basic array size parameters:
  | Number of species                 :        1
  | Number of atoms                   :        2
  | Number of lattice vectors         :        3
  | Max. basis fn. angular momentum   :        4
  | Max. atomic/ionic basis occupied n:        3
  | Max. number of basis fn. types    :        3
  | Max. radial fns per species/type  :        5
  | Max. logarithmic grid size        :     1346
  | Max. radial integration grid size :       85
  | Max. angular integration grid size:      434
  | Max. angular grid division number :        8
  | Radial grid for Hartree potential :     1346
  | Number of spin channels           :        1

------------------------------------------------------------
          Reading file control.in.
------------------------------------------------------------
  XC: Using PBE gradient-corrected functionals.
  Scalar relativistic treatment of kinetic energy: on-site free-atom approximation to ZORA.
  Periodic GW calculations will be started if finite k point sampling is also set. Please be warned that periodic GW is only at the experimental stage and is still under testing. Be cautious about your results.
  Number of frequency points used for the self-energy calculation:     40
  Using two-pole fitting for analytical continuation.
  Found k-point grid:         8         8         8

  Plot band    1
  | begin  0.000000  0.000000  0.000000
  | end    0.500000  0.000000  0.500000
  | number of points:   17

  Plot band    2
  | begin  0.500000  0.000000  0.500000
  | end    0.500000  0.250000  0.750000
  | number of points:    8

  Plot band    3
  | begin  0.500000  0.250000  0.750000
  | end    0.375000  0.375000  0.750000
  | number of points:    6

  Plot band    4
  | begin  0.375000  0.375000  0.750000
  | end    0.000000  0.000000  0.000000
  | number of points:   18

  Plot band    5
  | begin  0.000000  0.000000  0.000000
  | end    0.500000  0.500000  0.500000
  | number of points:   15

  Plot band    6
  | begin  0.500000  0.500000  0.500000
  | end    0.625000  0.250000  0.625000
  | number of points:   10

  Plot band    7
  | begin  0.625000  0.250000  0.625000
  | end    0.500000  0.250000  0.750000
  | number of points:    6

  Plot band    8
  | begin  0.500000  0.250000  0.750000
  | end    0.500000  0.500000  0.500000
  | number of points:   12

  Plot band    9
  | begin  0.500000  0.500000  0.500000
  | end    0.375000  0.375000  0.750000
  | number of points:   10

  Plot band   10
  | begin  0.625000  0.250000  0.625000
  | end    0.500000  0.000000  0.500000
  | number of points:    6
** Use Cholesky decomp for dielectric matrix inversion.
 
  Reading configuration options for species Si                  .
  | Found nuclear charge :  14.0000
  | Found atomic mass :    28.0855000000000      amu
  | Found l_max for Hartree potential  :   6
  | Found cutoff potl. onset [A], width [A], scale factor :    4.00000    2.00000    1.00000
  | Threshold for basis-dependent cutoff potential is   0.100000E-03
  | Found data for basic radial integration grid :    42 points, outermost radius =    7.000 A
  | Found multiplier for basic radial grid :   2
  | Found angular grid specification: user-specified.
  | Specified grid contains     6 separate shells.
  | Check grid settings after all constraints further below.
  | Found free-atom valence shell :  3 s   2.000
  | Found free-atom valence shell :  3 p   2.000
  | Found free-ion valence shell :  3 s   1.000
  | Found free-ion valence shell :  3 p   1.000
  | Found hydrogenic basis function :  3 d   4.200
  | Found hydrogenic basis function :  2 p   1.400
  | Found hydrogenic basis function :  4 f   6.200
  | Found ionic basis function :  3 s , default cutoff radius.
  | Found hydrogenic basis function :  3 d   9.000
  | Found hydrogenic basis function :  5 g   9.400
  Species Si                  : Missing cutoff potential type.
  Defaulting to exp(1/x)/(1-x)^2 type cutoff potential.
  Species Si: No 'logarithmic' tag. Using default grid for free atom:
  | Default logarithmic grid data [bohr] : 0.1000E-03 0.1000E+03 0.1012E+01
  | Will include ionic basis functions of  2.0-fold positive Si                   ion.
  Species Si: On-site basis accuracy parameter (for Gram-Schmidt orthonormalisation) not specified.
  Using default value basis_acc =  0.1000000E-03.
  Species Si                  : Using default innermost maximum threshold i_radial=  2 for radial functions.
  Species Si                  : Default cutoff onset for free atom density etc. : 0.40000000E+01 AA.
  Species Si                  : Basic radial grid will be enhanced according to radial_multiplier =   2, to contain    85 grid points.
 
  Finished reading input file 'control.in'.
 
------------------------------------------------------------


------------------------------------------------------------
          Reading geometry description geometry.in.
------------------------------------------------------------
  | The smallest distance between any two atoms is         2.35904838 AA.
  | The first atom of this pair is atom number                      1 .
  | The second atom of this pair is atom number                     2 .
  | Wigner-Seitz cell of the first atom image           0     0     1 .
  | (The Wigner-Seitz cell of the second atom is 0 0 0  by definition.)

  Symmetry information by spglib:
  | Precision set to  0.1E-04
  | Number of Operations  : 4
  | Space group           : 12
  | International         : C2/m
  | Schoenflies           : C2h^3
  Input structure read successfully.
  The structure contains        2 atoms,  and a total of         28.000 electrons.

  Input geometry:
  | Unit cell:
  |        0.00013684        2.72413122        2.72426803
  |        2.72413117        0.00013679        2.72426800
  |        2.72385756        2.72385758       -0.00027363
  | Atomic structure:
  |       Atom                x [A]            y [A]            z [A]
  |    1: Species Si            0.00000000        0.00000000        0.00000000
  |    2: Species Si            1.36203139        1.36203140        1.36206560

  Lattice parameters for 3D lattice (in Angstroms) :     3.852600    3.852600    3.852116
  Angle(s) between unit vectors (in degrees)       :    60.002493   60.002492   59.995016


  Quantities derived from the lattice vectors:
  | Reciprocal lattice vector 1: -1.153246  1.153362  1.153130
  | Reciprocal lattice vector 2:  1.153362 -1.153246  1.153130
  | Reciprocal lattice vector 3:  1.153304  1.153304 -1.153304
  | Unit cell volume                               :   0.404289E+02  A^3

  Fractional coordinates:
                         L1                L2                L3
       atom_frac         0.00000000        0.00000000        0.00000000  Si
       atom_frac         0.25000000        0.25000000        0.25000000  Si

 
  Finished reading input file 'control.in'.
 

------------------------------------------------------------
          Reading geometry description geometry.in.
------------------------------------------------------------
 
  Consistency checks for stacksize environment parameter are next.
 
  | Maximum stacksize for task 0: unlimited
  | Maximum stacksize for task 1: unlimited
  | Maximum stacksize for task 2: unlimited
  | Maximum stacksize for task 3: unlimited
  | Maximum stacksize for task 4: unlimited
  | Maximum stacksize for task 5: unlimited
  | Maximum stacksize for task 6: unlimited
  | Maximum stacksize for task 7: unlimited
  | Maximum stacksize for task 8: unlimited
  | Maximum stacksize for task 9: unlimited
  | Maximum stacksize for task 10: unlimited
  | Maximum stacksize for task 11: unlimited
  | Maximum stacksize for task 12: unlimited
  | Maximum stacksize for task 13: unlimited
  | Maximum stacksize for task 14: unlimited
  | Maximum stacksize for task 15: unlimited
  | Maximum stacksize for task 16: unlimited
  | Maximum stacksize for task 17: unlimited
  | Maximum stacksize for task 18: unlimited
  | Maximum stacksize for task 19: unlimited
  | Maximum stacksize for task 20: unlimited
  | Maximum stacksize for task 21: unlimited
  | Maximum stacksize for task 22: unlimited
  | Maximum stacksize for task 23: unlimited
  | Maximum stacksize for task 24: unlimited
  | Maximum stacksize for task 25: unlimited
  | Maximum stacksize for task 26: unlimited
  | Maximum stacksize for task 27: unlimited
  | Maximum stacksize for task 28: unlimited
  | Maximum stacksize for task 29: unlimited
  | Maximum stacksize for task 30: unlimited
  | Maximum stacksize for task 31: unlimited
  | Maximum stacksize for task 32: unlimited
  | Maximum stacksize for task 33: unlimited
  | Maximum stacksize for task 34: unlimited
  | Maximum stacksize for task 35: unlimited
  | Maximum stacksize for task 36: unlimited
  | Maximum stacksize for task 37: unlimited
  | Maximum stacksize for task 38: unlimited
  | Maximum stacksize for task 39: unlimited
  | Maximum stacksize for task 40: unlimited
  | Maximum stacksize for task 41: unlimited
  | Maximum stacksize for task 42: unlimited
  | Maximum stacksize for task 43: unlimited
  | Maximum stacksize for task 44: unlimited
  | Maximum stacksize for task 45: unlimited
  | Maximum stacksize for task 46: unlimited
  | Maximum stacksize for task 47: unlimited
  | Maximum stacksize for task 48: unlimited
  | Maximum stacksize for task 49: unlimited
  | Maximum stacksize for task 50: unlimited
  | Maximum stacksize for task 51: unlimited
  | Maximum stacksize for task 52: unlimited
  | Maximum stacksize for task 53: unlimited
  | Maximum stacksize for task 54: unlimited
  | Maximum stacksize for task 55: unlimited
  | Maximum stacksize for task 56: unlimited
  | Maximum stacksize for task 57: unlimited
  | Maximum stacksize for task 58: unlimited
  | Maximum stacksize for task 59: unlimited
  | Maximum stacksize for task 60: unlimited
  | Maximum stacksize for task 61: unlimited
  | Maximum stacksize for task 62: unlimited
  | Maximum stacksize for task 63: unlimited
  | Maximum stacksize for task 64: unlimited
  | Maximum stacksize for task 65: unlimited
  | Maximum stacksize for task 66: unlimited
  | Maximum stacksize for task 67: unlimited
  | Maximum stacksize for task 68: unlimited
  | Maximum stacksize for task 69: unlimited
  | Maximum stacksize for task 70: unlimited
  | Maximum stacksize for task 71: unlimited
  | Maximum stacksize for task 72: unlimited
  | Maximum stacksize for task 73: unlimited
  | Maximum stacksize for task 74: unlimited
  | Maximum stacksize for task 75: unlimited
  | Maximum stacksize for task 76: unlimited
  | Maximum stacksize for task 77: unlimited
  | Maximum stacksize for task 78: unlimited
  | Maximum stacksize for task 79: unlimited
  | Maximum stacksize for task 80: unlimited
  | Maximum stacksize for task 81: unlimited
  | Maximum stacksize for task 82: unlimited
  | Maximum stacksize for task 83: unlimited
  | Maximum stacksize for task 84: unlimited
  | Maximum stacksize for task 85: unlimited
  | Maximum stacksize for task 86: unlimited
  | Maximum stacksize for task 87: unlimited
  | Maximum stacksize for task 88: unlimited
  | Maximum stacksize for task 89: unlimited
  | Maximum stacksize for task 90: unlimited
  | Maximum stacksize for task 91: unlimited
  | Maximum stacksize for task 92: unlimited
  | Maximum stacksize for task 93: unlimited
  | Maximum stacksize for task 94: unlimited
  | Maximum stacksize for task 95: unlimited
  | Maximum stacksize for task 96: unlimited
  | Maximum stacksize for task 97: unlimited
  | Maximum stacksize for task 98: unlimited
  | Maximum stacksize for task 99: unlimited
  | Maximum stacksize for task 100: unlimited
  | Maximum stacksize for task 101: unlimited
  | Maximum stacksize for task 102: unlimited
  | Maximum stacksize for task 103: unlimited
  | Maximum stacksize for task 104: unlimited
  | Maximum stacksize for task 105: unlimited
  | Maximum stacksize for task 106: unlimited
  | Maximum stacksize for task 107: unlimited
  | Maximum stacksize for task 108: unlimited
  | Maximum stacksize for task 109: unlimited
  | Maximum stacksize for task 110: unlimited
  | Maximum stacksize for task 111: unlimited
  | Maximum stacksize for task 112: unlimited
  | Maximum stacksize for task 113: unlimited
  | Maximum stacksize for task 114: unlimited
  | Maximum stacksize for task 115: unlimited
  | Maximum stacksize for task 116: unlimited
  | Maximum stacksize for task 117: unlimited
  | Maximum stacksize for task 118: unlimited
  | Maximum stacksize for task 119: unlimited
  | Maximum stacksize for task 120: unlimited
  | Maximum stacksize for task 121: unlimited
  | Maximum stacksize for task 122: unlimited
  | Maximum stacksize for task 123: unlimited
  | Maximum stacksize for task 124: unlimited
  | Maximum stacksize for task 125: unlimited
  | Maximum stacksize for task 126: unlimited
  | Maximum stacksize for task 127: unlimited
  | Maximum stacksize for task 128: unlimited
  | Maximum stacksize for task 129: unlimited
  | Maximum stacksize for task 130: unlimited
  | Maximum stacksize for task 131: unlimited
  | Maximum stacksize for task 132: unlimited
  | Maximum stacksize for task 133: unlimited
  | Maximum stacksize for task 134: unlimited
  | Maximum stacksize for task 135: unlimited
  | Maximum stacksize for task 136: unlimited
  | Maximum stacksize for task 137: unlimited
  | Maximum stacksize for task 138: unlimited
  | Maximum stacksize for task 139: unlimited
  | Maximum stacksize for task 140: unlimited
  | Maximum stacksize for task 141: unlimited
  | Maximum stacksize for task 142: unlimited
  | Maximum stacksize for task 143: unlimited
  | Maximum stacksize for task 144: unlimited
  | Maximum stacksize for task 145: unlimited
  | Maximum stacksize for task 146: unlimited
  | Maximum stacksize for task 147: unlimited
  | Maximum stacksize for task 148: unlimited
  | Maximum stacksize for task 149: unlimited
  | Maximum stacksize for task 150: unlimited
  | Maximum stacksize for task 151: unlimited
  | Maximum stacksize for task 152: unlimited
  | Maximum stacksize for task 153: unlimited
  | Maximum stacksize for task 154: unlimited
  | Maximum stacksize for task 155: unlimited
  | Maximum stacksize for task 156: unlimited
  | Maximum stacksize for task 157: unlimited
  | Maximum stacksize for task 158: unlimited
  | Maximum stacksize for task 159: unlimited
  | Maximum stacksize for task 160: unlimited
  | Maximum stacksize for task 161: unlimited
  | Maximum stacksize for task 162: unlimited
  | Maximum stacksize for task 163: unlimited
  | Maximum stacksize for task 164: unlimited
  | Maximum stacksize for task 165: unlimited
  | Maximum stacksize for task 166: unlimited
  | Maximum stacksize for task 167: unlimited
  | Maximum stacksize for task 168: unlimited
  | Maximum stacksize for task 169: unlimited
  | Maximum stacksize for task 170: unlimited
  | Maximum stacksize for task 171: unlimited
  | Maximum stacksize for task 172: unlimited
  | Maximum stacksize for task 173: unlimited
  | Maximum stacksize for task 174: unlimited
  | Maximum stacksize for task 175: unlimited
  | Maximum stacksize for task 176: unlimited
  | Maximum stacksize for task 177: unlimited
  | Maximum stacksize for task 178: unlimited
  | Maximum stacksize for task 179: unlimited
  | Maximum stacksize for task 180: unlimited
  | Maximum stacksize for task 181: unlimited
  | Maximum stacksize for task 182: unlimited
  | Maximum stacksize for task 183: unlimited
  | Maximum stacksize for task 184: unlimited
  | Maximum stacksize for task 185: unlimited
  | Maximum stacksize for task 186: unlimited
  | Maximum stacksize for task 187: unlimited
  | Maximum stacksize for task 188: unlimited
  | Maximum stacksize for task 189: unlimited
  | Maximum stacksize for task 190: unlimited
  | Maximum stacksize for task 191: unlimited
  | Maximum stacksize for task 192: unlimited
  | Maximum stacksize for task 193: unlimited
  | Maximum stacksize for task 194: unlimited
  | Maximum stacksize for task 195: unlimited
  | Maximum stacksize for task 196: unlimited
  | Maximum stacksize for task 197: unlimited
  | Maximum stacksize for task 198: unlimited
  | Maximum stacksize for task 199: unlimited
  | Maximum stacksize for task 200: unlimited
  | Maximum stacksize for task 201: unlimited
  | Maximum stacksize for task 202: unlimited
  | Maximum stacksize for task 203: unlimited
  | Maximum stacksize for task 204: unlimited
  | Maximum stacksize for task 205: unlimited
  | Maximum stacksize for task 206: unlimited
  | Maximum stacksize for task 207: unlimited
  | Maximum stacksize for task 208: unlimited
  | Maximum stacksize for task 209: unlimited
  | Maximum stacksize for task 210: unlimited
  | Maximum stacksize for task 211: unlimited
  | Maximum stacksize for task 212: unlimited
  | Maximum stacksize for task 213: unlimited
  | Maximum stacksize for task 214: unlimited
  | Maximum stacksize for task 215: unlimited
  | Maximum stacksize for task 216: unlimited
  | Maximum stacksize for task 217: unlimited
  | Maximum stacksize for task 218: unlimited
  | Maximum stacksize for task 219: unlimited
  | Maximum stacksize for task 220: unlimited
  | Maximum stacksize for task 221: unlimited
  | Maximum stacksize for task 222: unlimited
  | Maximum stacksize for task 223: unlimited
  | Maximum stacksize for task 224: unlimited
  | Maximum stacksize for task 225: unlimited
  | Maximum stacksize for task 226: unlimited
  | Maximum stacksize for task 227: unlimited
  | Maximum stacksize for task 228: unlimited
  | Maximum stacksize for task 229: unlimited
  | Maximum stacksize for task 230: unlimited
  | Maximum stacksize for task 231: unlimited
  | Maximum stacksize for task 232: unlimited
  | Maximum stacksize for task 233: unlimited
  | Maximum stacksize for task 234: unlimited
  | Maximum stacksize for task 235: unlimited
  | Maximum stacksize for task 236: unlimited
  | Maximum stacksize for task 237: unlimited
  | Maximum stacksize for task 238: unlimited
  | Maximum stacksize for task 239: unlimited
  | Maximum stacksize for task 240: unlimited
  | Maximum stacksize for task 241: unlimited
  | Maximum stacksize for task 242: unlimited
  | Maximum stacksize for task 243: unlimited
  | Maximum stacksize for task 244: unlimited
  | Maximum stacksize for task 245: unlimited
  | Maximum stacksize for task 246: unlimited
  | Maximum stacksize for task 247: unlimited
  | Maximum stacksize for task 248: unlimited
  | Maximum stacksize for task 249: unlimited
  | Maximum stacksize for task 250: unlimited
  | Maximum stacksize for task 251: unlimited
  | Maximum stacksize for task 252: unlimited
  | Maximum stacksize for task 253: unlimited
  | Maximum stacksize for task 254: unlimited
  | Maximum stacksize for task 255: unlimited
  | Maximum stacksize for task 256: unlimited
  | Maximum stacksize for task 257: unlimited
  | Maximum stacksize for task 258: unlimited
  | Maximum stacksize for task 259: unlimited
  | Maximum stacksize for task 260: unlimited
  | Maximum stacksize for task 261: unlimited
  | Maximum stacksize for task 262: unlimited
  | Maximum stacksize for task 263: unlimited
  | Maximum stacksize for task 264: unlimited
  | Maximum stacksize for task 265: unlimited
  | Maximum stacksize for task 266: unlimited
  | Maximum stacksize for task 267: unlimited
  | Maximum stacksize for task 268: unlimited
  | Maximum stacksize for task 269: unlimited
  | Maximum stacksize for task 270: unlimited
  | Maximum stacksize for task 271: unlimited
  | Maximum stacksize for task 272: unlimited
  | Maximum stacksize for task 273: unlimited
  | Maximum stacksize for task 274: unlimited
  | Maximum stacksize for task 275: unlimited
  | Maximum stacksize for task 276: unlimited
  | Maximum stacksize for task 277: unlimited
  | Maximum stacksize for task 278: unlimited
  | Maximum stacksize for task 279: unlimited
  | Maximum stacksize for task 280: unlimited
  | Maximum stacksize for task 281: unlimited
  | Maximum stacksize for task 282: unlimited
  | Maximum stacksize for task 283: unlimited
  | Maximum stacksize for task 284: unlimited
  | Maximum stacksize for task 285: unlimited
  | Maximum stacksize for task 286: unlimited
  | Maximum stacksize for task 287: unlimited
  | Maximum stacksize for task 288: unlimited
  | Maximum stacksize for task 289: unlimited
  | Maximum stacksize for task 290: unlimited
  | Maximum stacksize for task 291: unlimited
  | Maximum stacksize for task 292: unlimited
  | Maximum stacksize for task 293: unlimited
  | Maximum stacksize for task 294: unlimited
  | Maximum stacksize for task 295: unlimited
  | Maximum stacksize for task 296: unlimited
  | Maximum stacksize for task 297: unlimited
  | Maximum stacksize for task 298: unlimited
  | Maximum stacksize for task 299: unlimited
  | Maximum stacksize for task 300: unlimited
  | Maximum stacksize for task 301: unlimited
  | Maximum stacksize for task 302: unlimited
  | Maximum stacksize for task 303: unlimited
  | Maximum stacksize for task 304: unlimited
  | Maximum stacksize for task 305: unlimited
  | Maximum stacksize for task 306: unlimited
  | Maximum stacksize for task 307: unlimited
  | Maximum stacksize for task 308: unlimited
  | Maximum stacksize for task 309: unlimited
  | Maximum stacksize for task 310: unlimited
  | Maximum stacksize for task 311: unlimited
  | Maximum stacksize for task 312: unlimited
  | Maximum stacksize for task 313: unlimited
  | Maximum stacksize for task 314: unlimited
  | Maximum stacksize for task 315: unlimited
  | Maximum stacksize for task 316: unlimited
  | Maximum stacksize for task 317: unlimited
  | Maximum stacksize for task 318: unlimited
  | Maximum stacksize for task 319: unlimited
  | Maximum stacksize for task 320: unlimited
  | Maximum stacksize for task 321: unlimited
  | Maximum stacksize for task 322: unlimited
  | Maximum stacksize for task 323: unlimited
  | Maximum stacksize for task 324: unlimited
  | Maximum stacksize for task 325: unlimited
  | Maximum stacksize for task 326: unlimited
  | Maximum stacksize for task 327: unlimited
  | Maximum stacksize for task 328: unlimited
  | Maximum stacksize for task 329: unlimited
  | Maximum stacksize for task 330: unlimited
  | Maximum stacksize for task 331: unlimited
  | Maximum stacksize for task 332: unlimited
  | Maximum stacksize for task 333: unlimited
  | Maximum stacksize for task 334: unlimited
  | Maximum stacksize for task 335: unlimited
  | Maximum stacksize for task 336: unlimited
  | Maximum stacksize for task 337: unlimited
  | Maximum stacksize for task 338: unlimited
  | Maximum stacksize for task 339: unlimited
  | Maximum stacksize for task 340: unlimited
  | Maximum stacksize for task 341: unlimited
  | Maximum stacksize for task 342: unlimited
  | Maximum stacksize for task 343: unlimited
  | Maximum stacksize for task 344: unlimited
  | Maximum stacksize for task 345: unlimited
  | Maximum stacksize for task 346: unlimited
  | Maximum stacksize for task 347: unlimited
  | Maximum stacksize for task 348: unlimited
  | Maximum stacksize for task 349: unlimited
  | Maximum stacksize for task 350: unlimited
  | Maximum stacksize for task 351: unlimited
  | Maximum stacksize for task 352: unlimited
  | Maximum stacksize for task 353: unlimited
  | Maximum stacksize for task 354: unlimited
  | Maximum stacksize for task 355: unlimited
  | Maximum stacksize for task 356: unlimited
  | Maximum stacksize for task 357: unlimited
  | Maximum stacksize for task 358: unlimited
  | Maximum stacksize for task 359: unlimited
  | Maximum stacksize for task 360: unlimited
  | Maximum stacksize for task 361: unlimited
  | Maximum stacksize for task 362: unlimited
  | Maximum stacksize for task 363: unlimited
  | Maximum stacksize for task 364: unlimited
  | Maximum stacksize for task 365: unlimited
  | Maximum stacksize for task 366: unlimited
  | Maximum stacksize for task 367: unlimited
  | Maximum stacksize for task 368: unlimited
  | Maximum stacksize for task 369: unlimited
  | Maximum stacksize for task 370: unlimited
  | Maximum stacksize for task 371: unlimited
  | Maximum stacksize for task 372: unlimited
  | Maximum stacksize for task 373: unlimited
  | Maximum stacksize for task 374: unlimited
  | Maximum stacksize for task 375: unlimited
  | Maximum stacksize for task 376: unlimited
  | Maximum stacksize for task 377: unlimited
  | Maximum stacksize for task 378: unlimited
  | Maximum stacksize for task 379: unlimited
  | Maximum stacksize for task 380: unlimited
  | Maximum stacksize for task 381: unlimited
  | Maximum stacksize for task 382: unlimited
  | Maximum stacksize for task 383: unlimited
  | Maximum stacksize for task 384: unlimited
  | Maximum stacksize for task 385: unlimited
  | Maximum stacksize for task 386: unlimited
  | Maximum stacksize for task 387: unlimited
  | Maximum stacksize for task 388: unlimited
  | Maximum stacksize for task 389: unlimited
  | Maximum stacksize for task 390: unlimited
  | Maximum stacksize for task 391: unlimited
  | Maximum stacksize for task 392: unlimited
  | Maximum stacksize for task 393: unlimited
  | Maximum stacksize for task 394: unlimited
  | Maximum stacksize for task 395: unlimited
  | Maximum stacksize for task 396: unlimited
  | Maximum stacksize for task 397: unlimited
  | Maximum stacksize for task 398: unlimited
  | Maximum stacksize for task 399: unlimited
  | Current stacksize for task 0: unlimited
  | Current stacksize for task 1: unlimited
  | Current stacksize for task 2: unlimited
  | Current stacksize for task 3: unlimited
  | Current stacksize for task 4: unlimited
  | Current stacksize for task 5: unlimited
  | Current stacksize for task 6: unlimited
  | Current stacksize for task 7: unlimited
  | Current stacksize for task 8: unlimited
  | Current stacksize for task 9: unlimited
  | Current stacksize for task 10: unlimited
  | Current stacksize for task 11: unlimited
  | Current stacksize for task 12: unlimited
  | Current stacksize for task 13: unlimited
  | Current stacksize for task 14: unlimited
  | Current stacksize for task 15: unlimited
  | Current stacksize for task 16: unlimited
  | Current stacksize for task 17: unlimited
  | Current stacksize for task 18: unlimited
  | Current stacksize for task 19: unlimited
  | Current stacksize for task 20: unlimited
  | Current stacksize for task 21: unlimited
  | Current stacksize for task 22: unlimited
  | Current stacksize for task 23: unlimited
  | Current stacksize for task 24: unlimited
  | Current stacksize for task 25: unlimited
  | Current stacksize for task 26: unlimited
  | Current stacksize for task 27: unlimited
  | Current stacksize for task 28: unlimited
  | Current stacksize for task 29: unlimited
  | Current stacksize for task 30: unlimited
  | Current stacksize for task 31: unlimited
  | Current stacksize for task 32: unlimited
  | Current stacksize for task 33: unlimited
  | Current stacksize for task 34: unlimited
  | Current stacksize for task 35: unlimited
  | Current stacksize for task 36: unlimited
  | Current stacksize for task 37: unlimited
  | Current stacksize for task 38: unlimited
  | Current stacksize for task 39: unlimited
  | Current stacksize for task 40: unlimited
  | Current stacksize for task 41: unlimited
  | Current stacksize for task 42: unlimited
  | Current stacksize for task 43: unlimited
  | Current stacksize for task 44: unlimited
  | Current stacksize for task 45: unlimited
  | Current stacksize for task 46: unlimited
  | Current stacksize for task 47: unlimited
  | Current stacksize for task 48: unlimited
  | Current stacksize for task 49: unlimited
  | Current stacksize for task 50: unlimited
  | Current stacksize for task 51: unlimited
  | Current stacksize for task 52: unlimited
  | Current stacksize for task 53: unlimited
  | Current stacksize for task 54: unlimited
  | Current stacksize for task 55: unlimited
  | Current stacksize for task 56: unlimited
  | Current stacksize for task 57: unlimited
  | Current stacksize for task 58: unlimited
  | Current stacksize for task 59: unlimited
  | Current stacksize for task 60: unlimited
  | Current stacksize for task 61: unlimited
  | Current stacksize for task 62: unlimited
  | Current stacksize for task 63: unlimited
  | Current stacksize for task 64: unlimited
  | Current stacksize for task 65: unlimited
  | Current stacksize for task 66: unlimited
  | Current stacksize for task 67: unlimited
  | Current stacksize for task 68: unlimited
  | Current stacksize for task 69: unlimited
  | Current stacksize for task 70: unlimited
  | Current stacksize for task 71: unlimited
  | Current stacksize for task 72: unlimited
  | Current stacksize for task 73: unlimited
  | Current stacksize for task 74: unlimited
  | Current stacksize for task 75: unlimited
  | Current stacksize for task 76: unlimited
  | Current stacksize for task 77: unlimited
  | Current stacksize for task 78: unlimited
  | Current stacksize for task 79: unlimited
  | Current stacksize for task 80: unlimited
  | Current stacksize for task 81: unlimited
  | Current stacksize for task 82: unlimited
  | Current stacksize for task 83: unlimited
  | Current stacksize for task 84: unlimited
  | Current stacksize for task 85: unlimited
  | Current stacksize for task 86: unlimited
  | Current stacksize for task 87: unlimited
  | Current stacksize for task 88: unlimited
  | Current stacksize for task 89: unlimited
  | Current stacksize for task 90: unlimited
  | Current stacksize for task 91: unlimited
  | Current stacksize for task 92: unlimited
  | Current stacksize for task 93: unlimited
  | Current stacksize for task 94: unlimited
  | Current stacksize for task 95: unlimited
  | Current stacksize for task 96: unlimited
  | Current stacksize for task 97: unlimited
  | Current stacksize for task 98: unlimited
  | Current stacksize for task 99: unlimited
  | Current stacksize for task 100: unlimited
  | Current stacksize for task 101: unlimited
  | Current stacksize for task 102: unlimited
  | Current stacksize for task 103: unlimited
  | Current stacksize for task 104: unlimited
  | Current stacksize for task 105: unlimited
  | Current stacksize for task 106: unlimited
  | Current stacksize for task 107: unlimited
  | Current stacksize for task 108: unlimited
  | Current stacksize for task 109: unlimited
  | Current stacksize for task 110: unlimited
  | Current stacksize for task 111: unlimited
  | Current stacksize for task 112: unlimited
  | Current stacksize for task 113: unlimited
  | Current stacksize for task 114: unlimited
  | Current stacksize for task 115: unlimited
  | Current stacksize for task 116: unlimited
  | Current stacksize for task 117: unlimited
  | Current stacksize for task 118: unlimited
  | Current stacksize for task 119: unlimited
  | Current stacksize for task 120: unlimited
  | Current stacksize for task 121: unlimited
  | Current stacksize for task 122: unlimited
  | Current stacksize for task 123: unlimited
  | Current stacksize for task 124: unlimited
  | Current stacksize for task 125: unlimited
  | Current stacksize for task 126: unlimited
  | Current stacksize for task 127: unlimited
  | Current stacksize for task 128: unlimited
  | Current stacksize for task 129: unlimited
  | Current stacksize for task 130: unlimited
  | Current stacksize for task 131: unlimited
  | Current stacksize for task 132: unlimited
  | Current stacksize for task 133: unlimited
  | Current stacksize for task 134: unlimited
  | Current stacksize for task 135: unlimited
  | Current stacksize for task 136: unlimited
  | Current stacksize for task 137: unlimited
  | Current stacksize for task 138: unlimited
  | Current stacksize for task 139: unlimited
  | Current stacksize for task 140: unlimited
  | Current stacksize for task 141: unlimited
  | Current stacksize for task 142: unlimited
  | Current stacksize for task 143: unlimited
  | Current stacksize for task 144: unlimited
  | Current stacksize for task 145: unlimited
  | Current stacksize for task 146: unlimited
  | Current stacksize for task 147: unlimited
  | Current stacksize for task 148: unlimited
  | Current stacksize for task 149: unlimited
  | Current stacksize for task 150: unlimited
  | Current stacksize for task 151: unlimited
  | Current stacksize for task 152: unlimited
  | Current stacksize for task 153: unlimited
  | Current stacksize for task 154: unlimited
  | Current stacksize for task 155: unlimited
  | Current stacksize for task 156: unlimited
  | Current stacksize for task 157: unlimited
  | Current stacksize for task 158: unlimited
  | Current stacksize for task 159: unlimited
  | Current stacksize for task 160: unlimited
  | Current stacksize for task 161: unlimited
  | Current stacksize for task 162: unlimited
  | Current stacksize for task 163: unlimited
  | Current stacksize for task 164: unlimited
  | Current stacksize for task 165: unlimited
  | Current stacksize for task 166: unlimited
  | Current stacksize for task 167: unlimited
  | Current stacksize for task 168: unlimited
  | Current stacksize for task 169: unlimited
  | Current stacksize for task 170: unlimited
  | Current stacksize for task 171: unlimited
  | Current stacksize for task 172: unlimited
  | Current stacksize for task 173: unlimited
  | Current stacksize for task 174: unlimited
  | Current stacksize for task 175: unlimited
  | Current stacksize for task 176: unlimited
  | Current stacksize for task 177: unlimited
  | Current stacksize for task 178: unlimited
  | Current stacksize for task 179: unlimited
  | Current stacksize for task 180: unlimited
  | Current stacksize for task 181: unlimited
  | Current stacksize for task 182: unlimited
  | Current stacksize for task 183: unlimited
  | Current stacksize for task 184: unlimited
  | Current stacksize for task 185: unlimited
  | Current stacksize for task 186: unlimited
  | Current stacksize for task 187: unlimited
  | Current stacksize for task 188: unlimited
  | Current stacksize for task 189: unlimited
  | Current stacksize for task 190: unlimited
  | Current stacksize for task 191: unlimited
  | Current stacksize for task 192: unlimited
  | Current stacksize for task 193: unlimited
  | Current stacksize for task 194: unlimited
  | Current stacksize for task 195: unlimited
  | Current stacksize for task 196: unlimited
  | Current stacksize for task 197: unlimited
  | Current stacksize for task 198: unlimited
  | Current stacksize for task 199: unlimited
  | Current stacksize for task 200: unlimited
  | Current stacksize for task 201: unlimited
  | Current stacksize for task 202: unlimited
  | Current stacksize for task 203: unlimited
  | Current stacksize for task 204: unlimited
  | Current stacksize for task 205: unlimited
  | Current stacksize for task 206: unlimited
  | Current stacksize for task 207: unlimited
  | Current stacksize for task 208: unlimited
  | Current stacksize for task 209: unlimited
  | Current stacksize for task 210: unlimited
  | Current stacksize for task 211: unlimited
  | Current stacksize for task 212: unlimited
  | Current stacksize for task 213: unlimited
  | Current stacksize for task 214: unlimited
  | Current stacksize for task 215: unlimited
  | Current stacksize for task 216: unlimited
  | Current stacksize for task 217: unlimited
  | Current stacksize for task 218: unlimited
  | Current stacksize for task 219: unlimited
  | Current stacksize for task 220: unlimited
  | Current stacksize for task 221: unlimited
  | Current stacksize for task 222: unlimited
  | Current stacksize for task 223: unlimited
  | Current stacksize for task 224: unlimited
  | Current stacksize for task 225: unlimited
  | Current stacksize for task 226: unlimited
  | Current stacksize for task 227: unlimited
  | Current stacksize for task 228: unlimited
  | Current stacksize for task 229: unlimited
  | Current stacksize for task 230: unlimited
  | Current stacksize for task 231: unlimited
  | Current stacksize for task 232: unlimited
  | Current stacksize for task 233: unlimited
  | Current stacksize for task 234: unlimited
  | Current stacksize for task 235: unlimited
  | Current stacksize for task 236: unlimited
  | Current stacksize for task 237: unlimited
  | Current stacksize for task 238: unlimited
  | Current stacksize for task 239: unlimited
  | Current stacksize for task 240: unlimited
  | Current stacksize for task 241: unlimited
  | Current stacksize for task 242: unlimited
  | Current stacksize for task 243: unlimited
  | Current stacksize for task 244: unlimited
  | Current stacksize for task 245: unlimited
  | Current stacksize for task 246: unlimited
  | Current stacksize for task 247: unlimited
  | Current stacksize for task 248: unlimited
  | Current stacksize for task 249: unlimited
  | Current stacksize for task 250: unlimited
  | Current stacksize for task 251: unlimited
  | Current stacksize for task 252: unlimited
  | Current stacksize for task 253: unlimited
  | Current stacksize for task 254: unlimited
  | Current stacksize for task 255: unlimited
  | Current stacksize for task 256: unlimited
  | Current stacksize for task 257: unlimited
  | Current stacksize for task 258: unlimited
  | Current stacksize for task 259: unlimited
  | Current stacksize for task 260: unlimited
  | Current stacksize for task 261: unlimited
  | Current stacksize for task 262: unlimited
  | Current stacksize for task 263: unlimited
  | Current stacksize for task 264: unlimited
  | Current stacksize for task 265: unlimited
  | Current stacksize for task 266: unlimited
  | Current stacksize for task 267: unlimited
  | Current stacksize for task 268: unlimited
  | Current stacksize for task 269: unlimited
  | Current stacksize for task 270: unlimited
  | Current stacksize for task 271: unlimited
  | Current stacksize for task 272: unlimited
  | Current stacksize for task 273: unlimited
  | Current stacksize for task 274: unlimited
  | Current stacksize for task 275: unlimited
  | Current stacksize for task 276: unlimited
  | Current stacksize for task 277: unlimited
  | Current stacksize for task 278: unlimited
  | Current stacksize for task 279: unlimited
  | Current stacksize for task 280: unlimited
  | Current stacksize for task 281: unlimited
  | Current stacksize for task 282: unlimited
  | Current stacksize for task 283: unlimited
  | Current stacksize for task 284: unlimited
  | Current stacksize for task 285: unlimited
  | Current stacksize for task 286: unlimited
  | Current stacksize for task 287: unlimited
  | Current stacksize for task 288: unlimited
  | Current stacksize for task 289: unlimited
  | Current stacksize for task 290: unlimited
  | Current stacksize for task 291: unlimited
  | Current stacksize for task 292: unlimited
  | Current stacksize for task 293: unlimited
  | Current stacksize for task 294: unlimited
  | Current stacksize for task 295: unlimited
  | Current stacksize for task 296: unlimited
  | Current stacksize for task 297: unlimited
  | Current stacksize for task 298: unlimited
  | Current stacksize for task 299: unlimited
  | Current stacksize for task 300: unlimited
  | Current stacksize for task 301: unlimited
  | Current stacksize for task 302: unlimited
  | Current stacksize for task 303: unlimited
  | Current stacksize for task 304: unlimited
  | Current stacksize for task 305: unlimited
  | Current stacksize for task 306: unlimited
  | Current stacksize for task 307: unlimited
  | Current stacksize for task 308: unlimited
  | Current stacksize for task 309: unlimited
  | Current stacksize for task 310: unlimited
  | Current stacksize for task 311: unlimited
  | Current stacksize for task 312: unlimited
  | Current stacksize for task 313: unlimited
  | Current stacksize for task 314: unlimited
  | Current stacksize for task 315: unlimited
  | Current stacksize for task 316: unlimited
  | Current stacksize for task 317: unlimited
  | Current stacksize for task 318: unlimited
  | Current stacksize for task 319: unlimited
  | Current stacksize for task 320: unlimited
  | Current stacksize for task 321: unlimited
  | Current stacksize for task 322: unlimited
  | Current stacksize for task 323: unlimited
  | Current stacksize for task 324: unlimited
  | Current stacksize for task 325: unlimited
  | Current stacksize for task 326: unlimited
  | Current stacksize for task 327: unlimited
  | Current stacksize for task 328: unlimited
  | Current stacksize for task 329: unlimited
  | Current stacksize for task 330: unlimited
  | Current stacksize for task 331: unlimited
  | Current stacksize for task 332: unlimited
  | Current stacksize for task 333: unlimited
  | Current stacksize for task 334: unlimited
  | Current stacksize for task 335: unlimited
  | Current stacksize for task 336: unlimited
  | Current stacksize for task 337: unlimited
  | Current stacksize for task 338: unlimited
  | Current stacksize for task 339: unlimited
  | Current stacksize for task 340: unlimited
  | Current stacksize for task 341: unlimited
  | Current stacksize for task 342: unlimited
  | Current stacksize for task 343: unlimited
  | Current stacksize for task 344: unlimited
  | Current stacksize for task 345: unlimited
  | Current stacksize for task 346: unlimited
  | Current stacksize for task 347: unlimited
  | Current stacksize for task 348: unlimited
  | Current stacksize for task 349: unlimited
  | Current stacksize for task 350: unlimited
  | Current stacksize for task 351: unlimited
  | Current stacksize for task 352: unlimited
  | Current stacksize for task 353: unlimited
  | Current stacksize for task 354: unlimited
  | Current stacksize for task 355: unlimited
  | Current stacksize for task 356: unlimited
  | Current stacksize for task 357: unlimited
  | Current stacksize for task 358: unlimited
  | Current stacksize for task 359: unlimited
  | Current stacksize for task 360: unlimited
  | Current stacksize for task 361: unlimited
  | Current stacksize for task 362: unlimited
  | Current stacksize for task 363: unlimited
  | Current stacksize for task 364: unlimited
  | Current stacksize for task 365: unlimited
  | Current stacksize for task 366: unlimited
  | Current stacksize for task 367: unlimited
  | Current stacksize for task 368: unlimited
  | Current stacksize for task 369: unlimited
  | Current stacksize for task 370: unlimited
  | Current stacksize for task 371: unlimited
  | Current stacksize for task 372: unlimited
  | Current stacksize for task 373: unlimited
  | Current stacksize for task 374: unlimited
  | Current stacksize for task 375: unlimited
  | Current stacksize for task 376: unlimited
  | Current stacksize for task 377: unlimited
  | Current stacksize for task 378: unlimited
  | Current stacksize for task 379: unlimited
  | Current stacksize for task 380: unlimited
  | Current stacksize for task 381: unlimited
  | Current stacksize for task 382: unlimited
  | Current stacksize for task 383: unlimited
  | Current stacksize for task 384: unlimited
  | Current stacksize for task 385: unlimited
  | Current stacksize for task 386: unlimited
  | Current stacksize for task 387: unlimited
  | Current stacksize for task 388: unlimited
  | Current stacksize for task 389: unlimited
  | Current stacksize for task 390: unlimited
  | Current stacksize for task 391: unlimited
  | Current stacksize for task 392: unlimited
  | Current stacksize for task 393: unlimited
  | Current stacksize for task 394: unlimited
  | Current stacksize for task 395: unlimited
  | Current stacksize for task 396: unlimited
  | Current stacksize for task 397: unlimited
  | Current stacksize for task 398: unlimited
  | Current stacksize for task 399: unlimited
 
  Consistency checks for the contents of control.in are next.
 
  MPI_IN_PLACE appears to work with this MPI implementation.
  | Keeping use_mpi_in_place .true. (see manual).
  Explicit treatment of the Coulomb operator is needed, but the RI method is not specified.
  Coulomb operator: Defaulting to 'LVL fast' resolution of identity - RI_type = LVL_fast
  Species Si: Using default value for prodbas_acc =   1.000000E-04.
  Species Si: Using default value max_l_prodbas =    20.
  Target number of points in a grid batch is not set. Defaulting to  100
  Method for grid partitioning is not set. Defaulting to parallel hash+maxmin partitioning.
  Batch size limit is not set. Defaulting to    200
  By default, will store active basis functions for each batch.
  If in need of memory, prune_basis_once .false. can be used to disable this option.
  communication_type for Hartree potential was not specified.
  Defaulting to calc_hartree .
  Defaulting to Pulay charge density mixer.
  Pulay mixer: Number of relevant iterations not set.
  Defaulting to    8 iterations.
  Pulay mixer: Number of initial linear mixing iterations not set.
  Defaulting to    0 iterations.
  Work space size for distributed Hartree potential not set.
  Defaulting to   0.200000E+03 MB.
  Mixing parameter for charge density mixing has not been set.
  Using default: charge_mix_param =     0.0500.
  The mixing parameter will be adjusted in iteration number     2 of the first full s.c.f. cycle only.
  Algorithm-dependent basis array size parameters:
  | n_max_pulay                         :        8
  Maximum number of self-consistency iterations not provided.
  Presetting  1000 iterations.
  Presetting      1001 iterations before the initial mixing cycle
  is restarted anyway using the sc_init_iter criterion / keyword.
  Presetting a factor      1.000 between actual scf density residual
  and density convergence criterion sc_accuracy_rho below which sc_init_iter
  takes no effect.
 * No s.c.f. convergence criteria (sc_accuracy_*) were provided in control.in.
 * The run will proceed with a reasonable default guess, but please check whether.
 * the s.c.f. cycles seem to take too much or too little time.
  Calculation of forces was not defined in control.in. No forces will be calculated.
  Geometry relaxation not requested: no relaxation will be performed.
 * Notice: The s.c.f. convergence criterion sc_accuracy_rho was not provided.
 * We used to stop in this case, and ask the user to provide reasonable
 * scf convergence criteria. However, this led some users to employ criteria
 * that led to extremely long run times, e.g., for simple relaxation.
 * We now preset a default value for sc_accuracy_rho if it is not set.
 * You may still wish to check if this setting is too tight or too loose for your needs.
 * Based on n_atoms and forces and force-correction status, FHI-aims chose sc_accuracy_rho =  0.500000E-06 .
  No accuracy limit for integral partition fn. given. Defaulting to  0.1000E-14.
  No threshold value for u(r) in integrations given. Defaulting to  0.1000E-05.
  No occupation type (smearing scheme) given. Defaulting to Gaussian broadening, width =  0.1000E-01 eV.
  The width will be adjusted in iteration number     2 of the first full s.c.f. cycle only.
  S.C.F. convergence parameters will be adjusted in iteration number     2 of the first full s.c.f. cycle only.
  No accuracy for occupation numbers given. Defaulting to  0.1000E-12.
  No threshold value for occupation numbers given. Defaulting to  0.0000E+00.
  No accuracy for fermi level given. Defaulting to  0.1000E-19.
  Maximum # of iterations to find E_F not set. Defaulting to  200.
  Preferred method for the eigenvalue solver ('KS_method') not specified in 'control.in'.
  Defaulting to serial version, LAPACK (via ELSI), since more k-points than CPUs available.
  Will not use alltoall communication since running on < 1024 CPUs.
  Threshold for basis singularities not set.
  Default threshold for basis singularities:  0.1000E-04
  partition_type (choice of integration weights) for integrals was not specified.
  | Using a version of the partition function of Stratmann and coworkers ('stratmann_sparse').
  | At each grid point, the set of atoms used to build the partition table is smoothly restricted to
  | only those atoms whose free-atom density would be non-zero at that grid point.
  Partitioning for Hartree potential was not defined. Using partition_type for integrals.
  | Adjusted default value of keyword multip_moments_threshold to:       0.10000000E-11
  | This value may affect high angular momentum components of the Hartree potential in periodic systems.
  Spin handling was not defined in control.in. Defaulting to unpolarized case.
  Angular momentum expansion for Kerker preconditioner not set explicitly.
  | Using default value of   0
  No explicit requirement for turning off preconditioner.
  | By default, it will be turned off when the charge convergence reaches
  | sc_accuracy_rho  =   0.500000E-06
  No special mixing parameter while Kerker preconditioner is on.
  Using default: charge_mix_param =     0.0500.
  Threshold for auxiliary basis singularities not set.
  Default threshold for auxiliary basis singularities:  0.1000E-04
  * Periodic GW calculations will start ......
  No q(lm)/r^(l+1) cutoff set for long-range Hartree potential.
  | Using default value of  0.100000E-09 .
  | Verify using the multipole_threshold keyword.
  Defaulting to new monopole extrapolation.
  Density update method: automatic selection selected.
  Using density matrix based charge density update.
  Using density matrix based charge density update.
  Using packed matrix style: index .
 * WARNING: This is an experimental version of the periodic GW implemenation.
 * We are still actively working on it to improve the efficiency and reliability. 
 * Do not rely on any results you obtained from periodic GW calculation.
  Defaulting to use full k-point grid (no symmetry reduction).
  Charge integration errors on the 3D integration grid will be compensated
  by explicit normalization and distribution of residual charges.
  Use the "compensate_multipole_errors" flag to change this behaviour.
  Default to 1D ("use_logsbt") integrations for auxiliary 2-center integrals.
  Default onset of logarithmic r-grid for SBT is -38.000000000000
  Default onset of logarithmic k-grid for SBT is -25.000000000000
  Default range of logarithmic r- and k-grid for SBT is  45.000000000000
  Default number of logarithmic r- and k-grid for SBT is   4096
  Set 'collect_eigenvectors' to be '.true.' for all serial calculations. This is mandatory.
  Set 'collect_eigenvectors' to be '.true.' for GW/RPA/MP2, SCREX/COHSEX cluster calculations
  Set 'collect_eigenvectors' to be '.true.' for qpe_calc (quasiparticle energy).
  Set 'collect_eigenvectors' to be '.true.' for KS_method lapack_fast and serial.
 
  Consistency checks for the contents of geometry.in are next.
 

  Range separation radius for Ewald summation (hartree_convergence_parameter):      3.90252617 bohr.
  Number of empty states per atom not set in control.in .
  | Since you are using a method that relies on the unoccupied spectrum
  | (MP2,GW,RPA et al.), will use the full Hamiltonian size (see below)
  | as the max. possible number of states (occupied plus empty).

  Structure-dependent array size parameters: 
  | Maximum number of distinct radial functions  :       11
  | Maximum number of basis functions            :       78
  | Number of Kohn-Sham states (occupied + empty):       78
------------------------------------------------------------
  Setting Coulomb cut-width to  1.091868692359 * rcut.
  Setting Coulomb cutting radius rcut to 15.408465308740 A.

------------------------------------------------------------
          Preparing all fixed parts of the calculation.
------------------------------------------------------------
  Determining machine precision:
    2.225073858507201E-308
  Setting up grids for atomic and cluster calculations.

  Creating wave function, potential, and density for free atoms.

  Species: Si

  List of occupied orbitals and eigenvalues:
    n    l              occ      energy [Ha]    energy [eV]
    1    0           2.0000       -65.775969     -1789.8552
    2    0           2.0000        -5.123557      -139.4191
    3    0           2.0000        -0.394463       -10.7339
    2    1           6.0000        -3.508175       -95.4623
    3    1           2.0000        -0.147003        -4.0002


  Adding cutoff potential to free-atom effective potential.
  Creating fixed part of basis set: Ionic, confined, hydrogenic.
 
  Si                   ion:

  List of free ionic orbitals and eigenvalues:
    n    l      energy [Ha]    energy [eV]
    1    0       -66.641157     -1813.3982
    2    0        -5.964274      -162.2962
    3    0        -1.073878       -29.2217
    2    1        -4.350005      -118.3697
    3    1        -0.776571       -21.1316


  List of ionic basis orbitals and eigenvalues:
    n    l      energy [Ha]    energy [eV]    outer radius [A]
    3    0        -1.073870       -29.2215       4.534782

 
[...]
  large SBT aliasing -> decrease lnk0 & increase lnk0+lnrange
  large SBT ringing -> decrease lnr0 & increase lnr0+lnrange
  |            El't  L: logFT-al.   small-k   large-k   small-r   large-r
  | Need to store  4357 splines of   145 points taking       5008 KiB.
  | Spline reduction from  4096 to   145 points by (cutting and)     1 x coarsening gives error:  0.00E+00
  Calculating macroscopic dielectric function along the imaginary frequency axis ...
  Recalculating HOMO and LUMO levels to determine eigenstates needed for dielectric calculations...


  Index of the first state to include in the calculations of the dielectric function along the imaginary axis :         1
  Index of the last state to include in the calculations of the dielectric function along the imaginary axis :        78

  Allocating        2.264 MB for mommat_full_x_up
  Allocating        2.264 MB for mommat_full_x_low
  Allocating        2.264 MB for mommat_full_y_up
  Allocating        2.264 MB for mommat_full_y_low
  Allocating        2.264 MB for mommat_full_z_up
  Allocating        2.264 MB for mommat_full_z_low
  Allocating        0.141 MB for moment_TZ

  Calculating p_x matrix elements...
  Integrating real-space momentum matrix: batch-based integration.
  Time summed over all CPUs for integration: real work       26.145 s, elapsed       47.137 s

  Calculating p_y matrix elements...
  Integrating real-space momentum matrix: batch-based integration.
  Time summed over all CPUs for integration: real work       25.301 s, elapsed       45.692 s

  Calculating p_z matrix elements...
  Integrating real-space momentum matrix: batch-based integration.
  Time summed over all CPUs for integration: real work       25.289 s, elapsed       45.266 s

  Calculating dielectric tensor elements...

  Initialising transformed Gauss-Legendre time and frequency grids
  Number of frequency points for self energy.....: 40
  Number of frequency points....................: 40

  Initialising transformed Gauss-Legendre time and frequency grids
  Number of frequency points for self energy.....: 40
  Number of frequency points....................: 40

  Initialising transformed Gauss-Legendre time and frequency grids
  Number of frequency points for self energy.....: 40
  Number of frequency points....................: 40

 
 ---------------------------------------------------
 ---------------------------------
  Start to calculate the periodic GW self energy  ... 
 ojo gwblocks          24          24           1
 
  Starting the main loop of GW computation
 
  Overlap matrix is not singular
  | Lowest and highest eigenvalues :  0.3396E-03,  0.6583E+01
  Finished singularity check of overlap matrix
  | Time :     0.001 s
  Starting LAPACK eigensolver
  Finished Cholesky decomposition
  | Time :     0.001 s
  Finished transformation to standard eigenproblem
  | Time :     0.000 s
  Finished solving standard eigenproblem
  | Time :     0.001 s
  Finished back-transformation of eigenvectors
  | Time :     0.000 s
  finished   1.5% of GW computation
  finished   3.1% of GW computation
  finished   4.6% of GW computation
  finished   6.2% of GW computation
  finished   7.7% of GW computation
  finished   9.2% of GW computation
  finished  10.8% of GW computation
  finished  12.3% of GW computation
  finished  13.8% of GW computation
  finished  15.4% of GW computation
  finished  16.9% of GW computation
  finished  18.5% of GW computation
  finished  20.0% of GW computation
  finished  21.5% of GW computation
  finished  23.1% of GW computation
  finished  24.6% of GW computation
  finished  26.2% of GW computation
  finished  27.7% of GW computation
  finished  29.2% of GW computation
  finished  30.8% of GW computation
  finished  32.3% of GW computation
  finished  33.8% of GW computation
  finished  35.4% of GW computation
  finished  36.9% of GW computation
  finished  38.5% of GW computation
  finished  40.0% of GW computation
  finished  41.5% of GW computation
  finished  43.1% of GW computation
  finished  44.6% of GW computation
  finished  46.2% of GW computation
  finished  47.7% of GW computation
  finished  49.2% of GW computation
  finished  50.8% of GW computation
  finished  52.3% of GW computation
  finished  53.8% of GW computation
  finished  55.4% of GW computation
  finished  56.9% of GW computation
  finished  58.5% of GW computation
  finished  60.0% of GW computation
  finished  61.5% of GW computation
  finished  63.1% of GW computation
  finished  64.6% of GW computation
  finished  66.2% of GW computation
  finished  67.7% of GW computation
  finished  69.2% of GW computation
  finished  70.8% of GW computation
  finished  72.3% of GW computation
  finished  73.8% of GW computation
  finished  75.4% of GW computation
  finished  76.9% of GW computation
  finished  78.5% of GW computation
  finished  80.0% of GW computation
  finished  81.5% of GW computation
  finished  83.1% of GW computation
  finished  84.6% of GW computation
  finished  86.2% of GW computation
  finished  87.7% of GW computation
  finished  89.2% of GW computation
  finished  90.8% of GW computation
  finished  92.3% of GW computation
  finished  93.8% of GW computation
  finished  95.4% of GW computation
  finished  96.9% of GW computation
  finished  98.5% of GW computation
  finished 100.0% of GW computation
 
 CPOUT:    110858094.943382     
 GWOUT:    83.4964588962368     
 GWBOUT:    83.4964588962368     
  Atomic logSBT for 2-center Coulomb matrix    :  max(cpu_time)    wall_clock(cpu1)
  | TB initialization                          :        0.057 s           0.058 s
  | TB usage                                   :        0.000 s           0.000 s

  Integrating local/semilocal matrix: batch-based integration.
  Time summed over all CPUs for integration: real work       59.150 s, elapsed      427.878 s => Consider using load balancing!

  -------------------------------------------------------------------
  Writing the requested band structure output:
  -------------------------------------------------------------------

 
  Analytical continuation of the self-energy starts...

  Treating all   17 k-points in band plot segment #   1:

  | Maximum value outside interaction range:  4.77E-15
 FMOUT:    98.7553208355701      (62.6837415098993,-8.681734233511989E-016)
 
------------------------------------------------------------------------------
  Start to calculate the exact-exchange and DFT xc contribution for each single-particle level ...

  "GW Band gap" along reciprocal space direction number:    1
  | Lowest unoccupied state:          -5.339498 eV
  | Highest occupied state :          -6.386174 eV
  | Energy difference      :           1.046675 eV


  Treating all    8 k-points in band plot segment #   2:

  | Maximum value outside interaction range:  4.77E-15
 FMOUT:    106.568824870837      (63.6746268377055,-3.647821867781501E-016)
 
------------------------------------------------------------------------------
  Start to calculate the exact-exchange and DFT xc contribution for each single-particle level ...

  "GW Band gap" along reciprocal space direction number:    2
  | Lowest unoccupied state:          -5.169222 eV
  | Highest occupied state :          -9.233314 eV
  | Energy difference      :           4.064092 eV


  Treating all    6 k-points in band plot segment #   3:

  | Maximum value outside interaction range:  4.77E-15
 FMOUT:    119.938526147970      (60.0812569547781,0.654802687103995)
 
------------------------------------------------------------------------------
  Start to calculate the exact-exchange and DFT xc contribution for each single-particle level ...

  "GW Band gap" along reciprocal space direction number:    3
  | Lowest unoccupied state:          -4.669913 eV
  | Highest occupied state :          -8.803473 eV
  | Energy difference      :           4.133560 eV


  Treating all   18 k-points in band plot segment #   4:

  | Maximum value outside interaction range:  4.77E-15
 FMOUT:    138.515810822108      (57.7829737578485,1.04927706346465)
 
------------------------------------------------------------------------------
  Start to calculate the exact-exchange and DFT xc contribution for each single-particle level ...

  "GW Band gap" along reciprocal space direction number:    4
  | Lowest unoccupied state:          -4.669913 eV
  | Highest occupied state :          -6.386174 eV
  | Energy difference      :           1.716260 eV


  Treating all   15 k-points in band plot segment #   5:

  | Maximum value outside interaction range:  4.77E-15
 FMOUT:    98.7553208355701      (62.6837415098993,-8.681734233511989E-016)
 
------------------------------------------------------------------------------
  Start to calculate the exact-exchange and DFT xc contribution for each single-particle level ...

  "GW Band gap" along reciprocal space direction number:    5
  | Lowest unoccupied state:          -4.379490 eV
  | Highest occupied state :          -6.386174 eV
  | Energy difference      :           2.006684 eV


  Treating all   10 k-points in band plot segment #   6:

  | Maximum value outside interaction range:  4.77E-15
 FMOUT:    157.499090493997      (62.7314819914502,6.647208827036749E-016)
 
------------------------------------------------------------------------------
  Start to calculate the exact-exchange and DFT xc contribution for each single-particle level ...

  "GW Band gap" along reciprocal space direction number:    6
  | Lowest unoccupied state:          -4.670970 eV
  | Highest occupied state :          -7.584861 eV
  | Energy difference      :           2.913891 eV


  Treating all    6 k-points in band plot segment #   7:

  | Maximum value outside interaction range:  4.77E-15
 FMOUT:    141.528153103621      (63.2069707831577,-1.36349743713999)
 
------------------------------------------------------------------------------
  Start to calculate the exact-exchange and DFT xc contribution for each single-particle level ...

  "GW Band gap" along reciprocal space direction number:    7
  | Lowest unoccupied state:          -4.670970 eV
  | Highest occupied state :          -8.804519 eV
  | Energy difference      :           4.133549 eV


  Treating all   12 k-points in band plot segment #   8:

  | Maximum value outside interaction range:  4.77E-15
 FMOUT:    119.938526147970      (60.0812569547781,0.654802687103995)
 
------------------------------------------------------------------------------
  Start to calculate the exact-exchange and DFT xc contribution for each single-particle level ...

  "GW Band gap" along reciprocal space direction number:    8
  | Lowest unoccupied state:          -4.379490 eV
  | Highest occupied state :          -7.584861 eV
  | Energy difference      :           3.205371 eV


  Treating all   10 k-points in band plot segment #   9:

  | Maximum value outside interaction range:  4.77E-15
 FMOUT:    157.499090493997      (62.7314819914502,6.647208827036749E-016)
 
------------------------------------------------------------------------------
  Start to calculate the exact-exchange and DFT xc contribution for each single-particle level ...

  "GW Band gap" along reciprocal space direction number:    9
  | Lowest unoccupied state:          -4.669913 eV
  | Highest occupied state :          -7.584861 eV
  | Energy difference      :           2.914948 eV


  Treating all    6 k-points in band plot segment #  10:

  | Maximum value outside interaction range:  4.77E-15
 FMOUT:    141.528153103621      (63.2069707831577,-1.36349743713999)
 
------------------------------------------------------------------------------
  Start to calculate the exact-exchange and DFT xc contribution for each single-particle level ...

  "GW Band gap" along reciprocal space direction number:   10
  | Lowest unoccupied state:          -5.169222 eV
  | Highest occupied state :          -8.804519 eV
  | Energy difference      :           3.635297 eV

  "GW Band gap" of total set of bands:
  | Lowest unoccupied state:      -5.33949832 eV at k point       0.40625      0.00000      0.40625
  | Highest occupied state :      -6.38617367 eV at k point       0.00000      0.00000      0.00000
  | Energy difference      :       1.04667535 eV


------------------------------------------------------------------------------
  Final output of selected total energy values:

  The following output summarizes some interesting total energy values
  at the end of a run (AFTER all relaxation, molecular dynamics, etc.).

  | Total energy of the DFT / Hartree-Fock s.c.f. calculation      :         -15802.693212306 eV
  | Final zero-broadening corrected energy (caution - metals only) :         -15802.693212306 eV
  | For reference only, the value of 1 Hartree used in FHI-aims is :             27.211384500 eV
  | For reference only, the overall average (free atom contribution
  | + realspace contribution) of the electrostatic potential after
  | s.c.f. convergence is                                          :            -13.069510969 eV

  Before relying on these values, please be sure to understand exactly which
  total energy value is referred to by a given number. Different objects may
  all carry the same name 'total energy'. Definitions:

  Total energy of the DFT / Hartree-Fock s.c.f. calculation:
  | Note that this energy does not include ANY quantities calculated after the
  | s.c.f. cycle, in particular not ANY RPA, MP2, etc. many-body perturbation terms.

  Final zero-broadening corrected energy:
  | For metallic systems only, a broadening of the occupation numbers at the Fermi
  | level can be extrapolated back to zero broadening by an electron-gas inspired
  | formula. For all systems that are not real metals, this value can be
  | meaningless and should be avoided.

------------------------------------------------------------------------------
  Methods described in the following list of references were used in this FHI-aims run.
  If you publish the results, please make sure to cite these reference if they apply.
  FHI-aims is an academic code, and for our developers (often, Ph.D. students
  and postdocs), scientific credit in the community is essential.
  Thank you for helping us!

  For any use of FHI-aims, please cite:

    Volker Blum, Ralf Gehrke, Felix Hanke, Paula Havu, Ville Havu,
    Xinguo Ren, Karsten Reuter, and Matthias Scheffler
    'Ab initio molecular simulations with numeric atom-centered orbitals'
    Computer Physics Communications 180, 2175-2196 (2009)
    http://dx.doi.org/10.1016/j.cpc.2009.06.022


  For Hartree-Fock, hybrid functionals, or many-body perturbation theory used in your run, please cite:

    Xinguo Ren, Patrick Rinke, Volker Blum, Juergen Wieferink, Alex Tkatchenko,
    Andrea Sanfilippo, Karsten Reuter, and Matthias Scheffler,
    'Resolution-of-identity approach to Hartree-Fock, hybrid density functionals,
    RPA, MP2, and GW with numeric atom-centered orbital basis functions'
    New Journal of Physics 14, 053020 (2012).
    http://dx.doi.org/10.1088/1367-2630/14/5/053020


  The provided symmetry information was generated with SPGlib:

    Atsushi Togo, Yusuke Seto, Dimitar Pashov
    SPGlib 1.7.3 obtained from http://spglib.sourceforge.net
    Copyright (C) 2008 Atsushi Togo


  The ELSI infrastructure was used in your run to solve the Kohn-Sham electronic structure.
  Please check out http://elsi-interchange.org to learn more.
  If scalability is important for your project, please acknowledge ELSI by citing:

    V. W-z. Yu, F. Corsetti, A. Garcia, W. P. Huhn, M. Jacquelin, W. Jia,
    B. Lange, L. Lin, J. Lu, W. Mi, A. Seifitokaldani, A. Vazquez-Mayagoitia,
    C. Yang, H. Yang, and V. Blum
    'ELSI: A unified software interface for Kohn-Sham electronic structure solvers'
    Computer Physics Communications 222, 267-285 (2018).
    http://dx.doi.org/10.1016/j.cpc.2017.09.007


  For the real-space grid partitioning and parallelization used in this calculation, please cite:

    Ville Havu, Volker Blum, Paula Havu, and Matthias Scheffler,
    'Efficient O(N) integration for all-electron electronic structure calculation'
    'using numerically tabulated basis functions'
    Journal of Computational Physics 228, 8367-8379 (2009).
    http://dx.doi.org/10.1016/j.jcp.2009.08.008


  The high-level electronic structure method used in your calculation
  employed our efficient localized resolution of identity for the Coulomb operator.
  Some calculations, especially large-scale hybrid density functional theory,
  are only possible thanks to this development. For this feature, please cite:

    Arvid Ihrig, Juergen Wieferink, Igor Ying Zhang, Matti Ropo, Xinguo Ren,
    Patrick Rinke, Matthias Scheffler, and Volker Blum,
    'Accurate localized resolution of identity approach for linear-scaling
    hybrid density functionals and for many-body perturbation theory'
    New Journal of Physics 117, 093020 (2015).
    http://dx.doi.org/10.1088/1367-2630/17/9/093020

  Of course, there are many other important community references, e.g., those cited in the
  above references. Our list is limited to references that describe implementations in the
  FHI-aims code. The reason is purely practical (length of this list) - please credit others as well.

------------------------------------------------------------
          Leaving FHI-aims.
          Date     :  20210919, Time     :  021616.601

          Computational steps:
          | Number of self-consistency cycles          :           12
          | Number of SCF (re)initializations          :            1

          Detailed time accounting                     :  max(cpu_time)    wall_clock(cpu1)
          | Total time                                 :    15381.944 s       15393.243 s
          | Preparation time                           :        0.223 s           0.428 s
          | Boundary condition initalization           :        0.116 s           0.113 s
          | Grid partitioning                          :        0.120 s           0.120 s
          | Preloading free-atom quantities on grid    :        0.060 s           0.083 s
          | Free-atom superposition energy             :        0.008 s           0.008 s
          | Total time for integrations                :        0.926 s           0.947 s
          | Product basis setup: Total time            :        0.000 s           0.000 s
          | Product basis: | 2-center integrations     :(       0.000 s)  (       0.000 s)
          | Product basis: | LVL 3-center & coefficient:(       0.000 s)  (       0.000 s)
          | Initialization for periodic correlated calc:      134.421 s         134.552 s
          | Transforming LVL triples to recip. space   :        1.880 s           1.881 s
          | The exact-exchange part of GW calc.        :       13.337 s          13.344 s
          | Total time for polarizability calc.        :     5248.887 s        5254.636 s
          | Total time for polarizability of k space   :     5188.962 s        5194.645 s
          | Total time for GW band self-energy calc.   :     3053.490 s        3056.576 s
          | Total time for solution of K.-S. equations :        0.442 s           0.490 s
          | Total time for density update              :        1.033 s           1.034 s
          | Total time for mixing & preconditioning    :        0.112 s           0.106 s
          | Total time for Hartree multipole update    :        0.028 s           0.028 s
          | Total time for Hartree multipole sum       :        0.312 s           0.326 s
          | Total time for total energy evaluation     :        0.031 s           0.039 s
          | Total time for scaled ZORA corrections     :        0.000 s           0.000 s
          | Total time for band structures, DOS        :        0.000 s           0.000 s


          Have a nice day.
------------------------------------------------------------
