BEGIN_INFO
Fermi Energy: -0.272067201069
END_INFO

BEGIN_BLOCK_BANDGRID_3D
comment_line
BEGIN_BANDGRID_3D_simple_example
90
6 6 9
0.0 0.0 0.0
   0.7539501668    0.0000000000    0.0000000000
   0.0000000000    0.7539501668    0.0000000000
   0.0000000000    0.0000000000    1.1425841515
BAND:  1
  -2.84615   -2.84604   -2.84578   -2.84552   -2.84537   -2.84552   -2.84578   -2.84604   -2.84615 
  -2.84611   -2.84601   -2.84576   -2.84550   -2.84538   -2.84550   -2.84576   -2.84601   -2.84611 
  -2.84604   -2.84594   -2.84570   -2.84548   -2.84538   -2.84548   -2.84570   -2.84594   -2.84604 
  -2.84604   -2.84594   -2.84570   -2.84548   -2.84538   -2.84548   -2.84570   -2.84594   -2.84604 
  -2.84611   -2.84601   -2.84576   -2.84550   -2.84538   -2.84550   -2.84576   -2.84601   -2.84611 
  -2.84615   -2.84604   -2.84578   -2.84552   -2.84537   -2.84552   -2.84578   -2.84604   -2.84615 

  -2.84611   -2.84601   -2.84576   -2.84550   -2.84538   -2.84550   -2.84576   -2.84601   -2.84611 
  -2.84609   -2.84599   -2.84574   -2.84550   -2.84538   -2.84550   -2.84574   -2.84599   -2.84609 
  -2.84603   -2.84593   -2.84570   -2.84548   -2.84538   -2.84548   -2.84570   -2.84593   -2.84603 
  -2.84603   -2.84593   -2.84570   -2.84548   -2.84538   -2.84548   -2.84570   -2.84593   -2.84603 
  -2.84609   -2.84599   -2.84574   -2.84550   -2.84538   -2.84550   -2.84574   -2.84599   -2.84609 
  -2.84611   -2.84601   -2.84576   -2.84550   -2.84538   -2.84550   -2.84576   -2.84601   -2.84611 

  -2.84604   -2.84594   -2.84570   -2.84548   -2.84538   -2.84548   -2.84570   -2.84594   -2.84604 
  -2.84603   -2.84593   -2.84570   -2.84548   -2.84538   -2.84548   -2.84570   -2.84593   -2.84603 
  -2.84602   -2.84591   -2.84568   -2.84547   -2.84539   -2.84547   -2.84568   -2.84591   -2.84602 
  -2.84602   -2.84591   -2.84568   -2.84547   -2.84539   -2.84547   -2.84568   -2.84591   -2.84602 
  -2.84603   -2.84593   -2.84570   -2.84548   -2.84538   -2.84548   -2.84570   -2.84593   -2.84603 
  -2.84604   -2.84594   -2.84570   -2.84548   -2.84538   -2.84548   -2.84570   -2.84594   -2.84604 

  -2.84604   -2.84594   -2.84570   -2.84548   -2.84538   -2.84548   -2.84570   -2.84594   -2.84604 
  -2.84603   -2.84593   -2.84570   -2.84548   -2.84538   -2.84548   -2.84570   -2.84593   -2.84603 
  -2.84602   -2.84591   -2.84568   -2.84547   -2.84539   -2.84547   -2.84568   -2.84591   -2.84602 
  -2.84602   -2.84591   -2.84568   -2.84547   -2.84539   -2.84547   -2.84568   -2.84591   -2.84602 
  -2.84603   -2.84593   -2.84570   -2.84548   -2.84538   -2.84548   -2.84570   -2.84593   -2.84603 
  -2.84604   -2.84594   -2.84570   -2.84548   -2.84538   -2.84548   -2.84570   -2.84594   -2.84604 

  -2.84611   -2.84601   -2.84576   -2.84550   -2.84538   -2.84550   -2.84576   -2.84601   -2.84611 
  -2.84609   -2.84599   -2.84574   -2.84550   -2.84538   -2.84550   -2.84574   -2.84599   -2.84609 
  -2.84603   -2.84593   -2.84570   -2.84548   -2.84538   -2.84548   -2.84570   -2.84593   -2.84603 
  -2.84603   -2.84593   -2.84570   -2.84548   -2.84538   -2.84548   -2.84570   -2.84593   -2.84603 
  -2.84609   -2.84599   -2.84574   -2.84550   -2.84538   -2.84550   -2.84574   -2.84599   -2.84609 
  -2.84611   -2.84601   -2.84576   -2.84550   -2.84538   -2.84550   -2.84576   -2.84601   -2.84611 

  -2.84615   -2.84604   -2.84578   -2.84552   -2.84537   -2.84552   -2.84578   -2.84604   -2.84615 
  -2.84611   -2.84601   -2.84576   -2.84550   -2.84538   -2.84550   -2.84576   -2.84601   -2.84611 
  -2.84604   -2.84594   -2.84570   -2.84548   -2.84538   -2.84548   -2.84570   -2.84594   -2.84604 
  -2.84604   -2.84594   -2.84570   -2.84548   -2.84538   -2.84548   -2.84570   -2.84594   -2.84604 
  -2.84611   -2.84601   -2.84576   -2.84550   -2.84538   -2.84550   -2.84576   -2.84601   -2.84611 
  -2.84615   -2.84604   -2.84578   -2.84552   -2.84537   -2.84552   -2.84578   -2.84604   -2.84615 
BAND:  2
  -2.84583   -2.84574   -2.84555   -2.84539   -2.84537   -2.84539   -2.84555   -2.84574   -2.84583 
  -2.84586   -2.84577   -2.84557   -2.84541   -2.84537   -2.84541   -2.84557   -2.84577   -2.84586 
  -2.84595   -2.84585   -2.84563   -2.84544   -2.84538   -2.84544   -2.84563   -2.84585   -2.84595 
  -2.84595   -2.84585   -2.84563   -2.84544   -2.84538   -2.84544   -2.84563   -2.84585   -2.84595 
  -2.84586   -2.84577   -2.84557   -2.84541   -2.84537   -2.84541   -2.84557   -2.84577   -2.84586 
  -2.84583   -2.84574   -2.84555   -2.84539   -2.84537   -2.84539   -2.84555   -2.84574   -2.84583 

  -2.84586   -2.84577   -2.84557   -2.84541   -2.84537   -2.84541   -2.84557   -2.84577   -2.84586 
  -2.84589   -2.84580   -2.84559   -2.84542   -2.84538   -2.84542   -2.84559   -2.84580   -2.84589 
  -2.84596   -2.84586   -2.84564   -2.84545   -2.84538   -2.84545   -2.84564   -2.84586   -2.84596 
  -2.84596   -2.84586   -2.84564   -2.84545   -2.84538   -2.84545   -2.84564   -2.84586   -2.84596 
  -2.84589   -2.84580   -2.84559   -2.84542   -2.84537   -2.84542   -2.84559   -2.84580   -2.84589 
  -2.84586   -2.84577   -2.84557   -2.84541   -2.84537   -2.84541   -2.84557   -2.84577   -2.84586 

  -2.84595   -2.84585   -2.84563   -2.84544   -2.84538   -2.84544   -2.84563   -2.84585   -2.84595 
  -2.84596   -2.84586   -2.84564   -2.84545   -2.84538   -2.84545   -2.84564   -2.84586   -2.84596 
  -2.84599   -2.84589   -2.84566   -2.84546   -2.84539   -2.84546   -2.84566   -2.84589   -2.84599 
  -2.84599   -2.84589   -2.84566   -2.84546   -2.84538   -2.84546   -2.84566   -2.84589   -2.84599 
  -2.84596   -2.84586   -2.84564   -2.84545   -2.84538   -2.84545   -2.84564   -2.84586   -2.84596 
  -2.84595   -2.84585   -2.84563   -2.84544   -2.84538   -2.84544   -2.84563   -2.84585   -2.84595 

  -2.84595   -2.84585   -2.84563   -2.84544   -2.84538   -2.84544   -2.84563   -2.84585   -2.84595 
  -2.84596   -2.84586   -2.84564   -2.84545   -2.84538   -2.84545   -2.84564   -2.84586   -2.84596 
  -2.84599   -2.84589   -2.84566   -2.84546   -2.84538   -2.84546   -2.84566   -2.84589   -2.84599 
  -2.84599   -2.84589   -2.84566   -2.84546   -2.84539   -2.84546   -2.84566   -2.84589   -2.84599 
  -2.84596   -2.84586   -2.84564   -2.84545   -2.84538   -2.84545   -2.84564   -2.84586   -2.84596 
  -2.84595   -2.84585   -2.84563   -2.84544   -2.84538   -2.84544   -2.84563   -2.84585   -2.84595 

  -2.84586   -2.84577   -2.84557   -2.84541   -2.84537   -2.84541   -2.84557   -2.84577   -2.84586 
  -2.84589   -2.84580   -2.84559   -2.84542   -2.84537   -2.84542   -2.84559   -2.84580   -2.84589 
  -2.84596   -2.84586   -2.84564   -2.84545   -2.84538   -2.84545   -2.84564   -2.84586   -2.84596 
  -2.84596   -2.84586   -2.84564   -2.84545   -2.84538   -2.84545   -2.84564   -2.84586   -2.84596 
  -2.84589   -2.84580   -2.84559   -2.84542   -2.84538   -2.84542   -2.84559   -2.84580   -2.84589 
  -2.84586   -2.84577   -2.84557   -2.84541   -2.84537   -2.84541   -2.84557   -2.84577   -2.84586 

  -2.84583   -2.84574   -2.84555   -2.84539   -2.84537   -2.84539   -2.84555   -2.84574   -2.84583 
  -2.84586   -2.84577   -2.84557   -2.84541   -2.84537   -2.84541   -2.84557   -2.84577   -2.84586 
  -2.84595   -2.84585   -2.84563   -2.84544   -2.84538   -2.84544   -2.84563   -2.84585   -2.84595 
  -2.84595   -2.84585   -2.84563   -2.84544   -2.84538   -2.84544   -2.84563   -2.84585   -2.84595 
  -2.84586   -2.84577   -2.84557   -2.84541   -2.84537   -2.84541   -2.84557   -2.84577   -2.84586 
  -2.84583   -2.84574   -2.84555   -2.84539   -2.84537   -2.84539   -2.84555   -2.84574   -2.84583 
BAND:  3
  -1.81352   -1.81342   -1.81317   -1.81290   -1.81278   -1.81290   -1.81317   -1.81342   -1.81352 
  -1.81348   -1.81338   -1.81316   -1.81292   -1.81282   -1.81292   -1.81316   -1.81338   -1.81348 
  -1.81339   -1.81332   -1.81315   -1.81297   -1.81289   -1.81297   -1.81315   -1.81332   -1.81339 
  -1.81339   -1.81332   -1.81315   -1.81297   -1.81289   -1.81297   -1.81315   -1.81332   -1.81339 
  -1.81348   -1.81338   -1.81316   -1.81292   -1.81282   -1.81292   -1.81316   -1.81338   -1.81348 
  -1.81352   -1.81342   -1.81317   -1.81290   -1.81278   -1.81290   -1.81317   -1.81342   -1.81352 

  -1.81348   -1.81338   -1.81316   -1.81292   -1.81282   -1.81292   -1.81316   -1.81338   -1.81348 
  -1.81354   -1.81344   -1.81318   -1.81295   -1.81288   -1.81295   -1.81318   -1.81344   -1.81354 
  -1.81350   -1.81341   -1.81318   -1.81297   -1.81290   -1.81297   -1.81318   -1.81341   -1.81350 
  -1.81351   -1.81342   -1.81319   -1.81297   -1.81289   -1.81297   -1.81319   -1.81342   -1.81351 
  -1.81355   -1.81344   -1.81319   -1.81295   -1.81287   -1.81295   -1.81319   -1.81344   -1.81355 
  -1.81348   -1.81338   -1.81316   -1.81292   -1.81282   -1.81292   -1.81316   -1.81338   -1.81348 

  -1.81339   -1.81332   -1.81315   -1.81297   -1.81289   -1.81297   -1.81315   -1.81332   -1.81339 
  -1.81350   -1.81341   -1.81318   -1.81297   -1.81290   -1.81297   -1.81318   -1.81341   -1.81350 
  -1.81359   -1.81349   -1.81322   -1.81296   -1.81286   -1.81296   -1.81322   -1.81349   -1.81359 
  -1.81360   -1.81349   -1.81323   -1.81296   -1.81286   -1.81296   -1.81323   -1.81349   -1.81360 
  -1.81351   -1.81342   -1.81319   -1.81297   -1.81289   -1.81297   -1.81319   -1.81342   -1.81351 
  -1.81339   -1.81332   -1.81315   -1.81297   -1.81289   -1.81297   -1.81315   -1.81332   -1.81339 

  -1.81339   -1.81332   -1.81315   -1.81297   -1.81289   -1.81297   -1.81315   -1.81332   -1.81339 
  -1.81351   -1.81342   -1.81319   -1.81297   -1.81289   -1.81297   -1.81319   -1.81342   -1.81351 
  -1.81360   -1.81349   -1.81323   -1.81296   -1.81286   -1.81296   -1.81323   -1.81349   -1.81360 
  -1.81359   -1.81349   -1.81322   -1.81296   -1.81286   -1.81296   -1.81322   -1.81349   -1.81359 
  -1.81350   -1.81341   -1.81318   -1.81297   -1.81290   -1.81297   -1.81318   -1.81341   -1.81350 
  -1.81339   -1.81332   -1.81315   -1.81297   -1.81289   -1.81297   -1.81315   -1.81332   -1.81339 

  -1.81348   -1.81338   -1.81316   -1.81292   -1.81282   -1.81292   -1.81316   -1.81338   -1.81348 
  -1.81355   -1.81344   -1.81319   -1.81295   -1.81287   -1.81295   -1.81319   -1.81344   -1.81355 
  -1.81351   -1.81342   -1.81319   -1.81297   -1.81289   -1.81297   -1.81319   -1.81342   -1.81351 
  -1.81350   -1.81341   -1.81318   -1.81297   -1.81290   -1.81297   -1.81318   -1.81341   -1.81350 
  -1.81354   -1.81344   -1.81318   -1.81295   -1.81288   -1.81295   -1.81318   -1.81344   -1.81354 
  -1.81348   -1.81338   -1.81316   -1.81292   -1.81282   -1.81292   -1.81316   -1.81338   -1.81348 

  -1.81352   -1.81342   -1.81317   -1.81290   -1.81278   -1.81290   -1.81317   -1.81342   -1.81352 
  -1.81348   -1.81338   -1.81316   -1.81292   -1.81282   -1.81292   -1.81316   -1.81338   -1.81348 
  -1.81339   -1.81332   -1.81315   -1.81297   -1.81289   -1.81297   -1.81315   -1.81332   -1.81339 
  -1.81339   -1.81332   -1.81315   -1.81297   -1.81289   -1.81297   -1.81315   -1.81332   -1.81339 
  -1.81348   -1.81338   -1.81316   -1.81292   -1.81282   -1.81292   -1.81316   -1.81338   -1.81348 
  -1.81352   -1.81342   -1.81317   -1.81290   -1.81278   -1.81290   -1.81317   -1.81342   -1.81352 
BAND:  4
  -1.81352   -1.81342   -1.81316   -1.81289   -1.81277   -1.81289   -1.81316   -1.81342   -1.81352 
  -1.81346   -1.81337   -1.81315   -1.81292   -1.81282   -1.81292   -1.81315   -1.81337   -1.81346 
  -1.81338   -1.81332   -1.81314   -1.81296   -1.81289   -1.81296   -1.81314   -1.81332   -1.81338 
  -1.81338   -1.81332   -1.81314   -1.81296   -1.81289   -1.81296   -1.81314   -1.81332   -1.81338 
  -1.81346   -1.81337   -1.81315   -1.81292   -1.81282   -1.81292   -1.81315   -1.81337   -1.81346 
  -1.81352   -1.81342   -1.81316   -1.81289   -1.81277   -1.81289   -1.81316   -1.81342   -1.81352 

  -1.81346   -1.81337   -1.81315   -1.81292   -1.81282   -1.81292   -1.81315   -1.81337   -1.81346 
  -1.81338   -1.81331   -1.81314   -1.81291   -1.81279   -1.81291   -1.81314   -1.81331   -1.81338 
  -1.81340   -1.81334   -1.81316   -1.81295   -1.81285   -1.81295   -1.81316   -1.81334   -1.81340 
  -1.81340   -1.81333   -1.81315   -1.81295   -1.81285   -1.81295   -1.81315   -1.81333   -1.81340 
  -1.81338   -1.81331   -1.81313   -1.81292   -1.81280   -1.81292   -1.81313   -1.81331   -1.81338 
  -1.81346   -1.81337   -1.81315   -1.81292   -1.81282   -1.81292   -1.81315   -1.81337   -1.81346 

  -1.81338   -1.81332   -1.81314   -1.81296   -1.81289   -1.81296   -1.81314   -1.81332   -1.81338 
  -1.81340   -1.81334   -1.81316   -1.81295   -1.81285   -1.81295   -1.81316   -1.81334   -1.81340 
  -1.81353   -1.81344   -1.81321   -1.81295   -1.81283   -1.81295   -1.81321   -1.81344   -1.81353 
  -1.81353   -1.81344   -1.81320   -1.81295   -1.81283   -1.81295   -1.81320   -1.81344   -1.81353 
  -1.81340   -1.81333   -1.81315   -1.81295   -1.81285   -1.81295   -1.81315   -1.81333   -1.81340 
  -1.81338   -1.81332   -1.81314   -1.81296   -1.81289   -1.81296   -1.81314   -1.81332   -1.81338 

  -1.81338   -1.81332   -1.81314   -1.81296   -1.81289   -1.81296   -1.81314   -1.81332   -1.81338 
  -1.81340   -1.81333   -1.81315   -1.81295   -1.81285   -1.81295   -1.81315   -1.81333   -1.81340 
  -1.81353   -1.81344   -1.81320   -1.81295   -1.81283   -1.81295   -1.81320   -1.81344   -1.81353 
  -1.81353   -1.81344   -1.81321   -1.81295   -1.81283   -1.81295   -1.81321   -1.81344   -1.81353 
  -1.81340   -1.81334   -1.81316   -1.81295   -1.81285   -1.81295   -1.81316   -1.81334   -1.81340 
  -1.81338   -1.81332   -1.81314   -1.81296   -1.81289   -1.81296   -1.81314   -1.81332   -1.81338 

  -1.81346   -1.81337   -1.81315   -1.81292   -1.81282   -1.81292   -1.81315   -1.81337   -1.81346 
  -1.81338   -1.81331   -1.81313   -1.81292   -1.81280   -1.81292   -1.81313   -1.81331   -1.81338 
  -1.81340   -1.81333   -1.81315   -1.81295   -1.81285   -1.81295   -1.81315   -1.81333   -1.81340 
  -1.81340   -1.81334   -1.81316   -1.81295   -1.81285   -1.81295   -1.81316   -1.81334   -1.81340 
  -1.81338   -1.81331   -1.81314   -1.81291   -1.81279   -1.81291   -1.81314   -1.81331   -1.81338 
  -1.81346   -1.81337   -1.81315   -1.81292   -1.81282   -1.81292   -1.81315   -1.81337   -1.81346 

  -1.81352   -1.81342   -1.81316   -1.81289   -1.81277   -1.81289   -1.81316   -1.81342   -1.81352 
  -1.81346   -1.81337   -1.81315   -1.81292   -1.81282   -1.81292   -1.81315   -1.81337   -1.81346 
  -1.81338   -1.81332   -1.81314   -1.81296   -1.81289   -1.81296   -1.81314   -1.81332   -1.81338 
  -1.81338   -1.81332   -1.81314   -1.81296   -1.81289   -1.81296   -1.81314   -1.81332   -1.81338 
  -1.81346   -1.81337   -1.81315   -1.81292   -1.81282   -1.81292   -1.81315   -1.81337   -1.81346 
  -1.81352   -1.81342   -1.81316   -1.81289   -1.81277   -1.81289   -1.81316   -1.81342   -1.81352 
BAND:  5
  -1.80564   -1.80552   -1.80521   -1.80488   -1.80473   -1.80488   -1.80521   -1.80552   -1.80564 
  -1.80572   -1.80559   -1.80525   -1.80490   -1.80486   -1.80490   -1.80525   -1.80559   -1.80572 
  -1.80586   -1.80570   -1.80532   -1.80494   -1.80493   -1.80494   -1.80532   -1.80570   -1.80586 
  -1.80586   -1.80570   -1.80532   -1.80494   -1.80493   -1.80494   -1.80532   -1.80570   -1.80586 
  -1.80572   -1.80559   -1.80525   -1.80490   -1.80486   -1.80490   -1.80525   -1.80559   -1.80572 
  -1.80564   -1.80552   -1.80521   -1.80488   -1.80473   -1.80488   -1.80521   -1.80552   -1.80564 

  -1.80572   -1.80559   -1.80525   -1.80490   -1.80486   -1.80490   -1.80525   -1.80559   -1.80572 
  -1.80585   -1.80570   -1.80531   -1.80494   -1.80498   -1.80494   -1.80531   -1.80570   -1.80585 
  -1.80587   -1.80571   -1.80533   -1.80496   -1.80496   -1.80496   -1.80533   -1.80571   -1.80587 
  -1.80586   -1.80571   -1.80532   -1.80495   -1.80496   -1.80495   -1.80532   -1.80571   -1.80586 
  -1.80584   -1.80569   -1.80530   -1.80493   -1.80497   -1.80493   -1.80530   -1.80569   -1.80584 
  -1.80572   -1.80559   -1.80525   -1.80490   -1.80486   -1.80490   -1.80525   -1.80559   -1.80572 

  -1.80586   -1.80570   -1.80532   -1.80494   -1.80493   -1.80494   -1.80532   -1.80570   -1.80586 
  -1.80587   -1.80571   -1.80533   -1.80496   -1.80496   -1.80496   -1.80533   -1.80571   -1.80587 
  -1.80577   -1.80563   -1.80529   -1.80495   -1.80489   -1.80495   -1.80529   -1.80563   -1.80577 
  -1.80576   -1.80563   -1.80528   -1.80494   -1.80489   -1.80494   -1.80528   -1.80563   -1.80576 
  -1.80586   -1.80571   -1.80532   -1.80495   -1.80496   -1.80495   -1.80532   -1.80571   -1.80586 
  -1.80586   -1.80570   -1.80532   -1.80494   -1.80493   -1.80494   -1.80532   -1.80570   -1.80586 

  -1.80586   -1.80570   -1.80532   -1.80494   -1.80493   -1.80494   -1.80532   -1.80570   -1.80586 
  -1.80586   -1.80571   -1.80532   -1.80495   -1.80496   -1.80495   -1.80532   -1.80571   -1.80586 
  -1.80576   -1.80563   -1.80528   -1.80494   -1.80489   -1.80494   -1.80528   -1.80563   -1.80576 
  -1.80577   -1.80563   -1.80529   -1.80495   -1.80489   -1.80495   -1.80529   -1.80563   -1.80577 
  -1.80587   -1.80571   -1.80533   -1.80496   -1.80496   -1.80496   -1.80533   -1.80571   -1.80587 
  -1.80586   -1.80570   -1.80532   -1.80494   -1.80493   -1.80494   -1.80532   -1.80570   -1.80586 

  -1.80572   -1.80559   -1.80525   -1.80490   -1.80486   -1.80490   -1.80525   -1.80559   -1.80572 
  -1.80584   -1.80569   -1.80530   -1.80493   -1.80497   -1.80493   -1.80530   -1.80569   -1.80584 
  -1.80586   -1.80571   -1.80532   -1.80495   -1.80496   -1.80495   -1.80532   -1.80571   -1.80586 
  -1.80587   -1.80571   -1.80533   -1.80496   -1.80496   -1.80496   -1.80533   -1.80571   -1.80587 
  -1.80585   -1.80570   -1.80531   -1.80494   -1.80498   -1.80494   -1.80531   -1.80570   -1.80585 
  -1.80572   -1.80559   -1.80525   -1.80490   -1.80486   -1.80490   -1.80525   -1.80559   -1.80572 

  -1.80564   -1.80552   -1.80521   -1.80488   -1.80473   -1.80488   -1.80521   -1.80552   -1.80564 
  -1.80572   -1.80559   -1.80525   -1.80490   -1.80486   -1.80490   -1.80525   -1.80559   -1.80572 
  -1.80586   -1.80570   -1.80532   -1.80494   -1.80493   -1.80494   -1.80532   -1.80570   -1.80586 
  -1.80586   -1.80570   -1.80532   -1.80494   -1.80493   -1.80494   -1.80532   -1.80570   -1.80586 
  -1.80572   -1.80559   -1.80525   -1.80490   -1.80486   -1.80490   -1.80525   -1.80559   -1.80572 
  -1.80564   -1.80552   -1.80521   -1.80488   -1.80473   -1.80488   -1.80521   -1.80552   -1.80564 
BAND:  6
  -1.80564   -1.80551   -1.80520   -1.80487   -1.80472   -1.80487   -1.80520   -1.80551   -1.80564 
  -1.80571   -1.80558   -1.80524   -1.80489   -1.80485   -1.80489   -1.80524   -1.80558   -1.80571 
  -1.80584   -1.80569   -1.80531   -1.80493   -1.80492   -1.80493   -1.80531   -1.80569   -1.80584 
  -1.80584   -1.80569   -1.80531   -1.80493   -1.80492   -1.80493   -1.80531   -1.80569   -1.80584 
  -1.80571   -1.80558   -1.80524   -1.80489   -1.80485   -1.80489   -1.80524   -1.80558   -1.80571 
  -1.80564   -1.80551   -1.80520   -1.80487   -1.80472   -1.80487   -1.80520   -1.80551   -1.80564 

  -1.80571   -1.80558   -1.80524   -1.80489   -1.80485   -1.80489   -1.80524   -1.80558   -1.80571 
  -1.80565   -1.80552   -1.80521   -1.80488   -1.80474   -1.80488   -1.80521   -1.80552   -1.80565 
  -1.80574   -1.80560   -1.80526   -1.80491   -1.80484   -1.80491   -1.80526   -1.80560   -1.80574 
  -1.80575   -1.80561   -1.80527   -1.80492   -1.80485   -1.80492   -1.80527   -1.80561   -1.80575 
  -1.80566   -1.80553   -1.80522   -1.80489   -1.80475   -1.80489   -1.80522   -1.80553   -1.80566 
  -1.80571   -1.80558   -1.80524   -1.80489   -1.80485   -1.80489   -1.80524   -1.80558   -1.80571 

  -1.80584   -1.80569   -1.80531   -1.80493   -1.80492   -1.80493   -1.80531   -1.80569   -1.80584 
  -1.80574   -1.80560   -1.80526   -1.80491   -1.80484   -1.80491   -1.80526   -1.80560   -1.80574 
  -1.80569   -1.80556   -1.80525   -1.80491   -1.80477   -1.80491   -1.80525   -1.80556   -1.80569 
  -1.80570   -1.80557   -1.80525   -1.80492   -1.80478   -1.80492   -1.80525   -1.80557   -1.80570 
  -1.80575   -1.80561   -1.80527   -1.80492   -1.80485   -1.80492   -1.80527   -1.80561   -1.80575 
  -1.80584   -1.80569   -1.80531   -1.80493   -1.80492   -1.80493   -1.80531   -1.80569   -1.80584 

  -1.80584   -1.80569   -1.80531   -1.80493   -1.80492   -1.80493   -1.80531   -1.80569   -1.80584 
  -1.80575   -1.80561   -1.80527   -1.80492   -1.80485   -1.80492   -1.80527   -1.80561   -1.80575 
  -1.80570   -1.80557   -1.80525   -1.80492   -1.80478   -1.80492   -1.80525   -1.80557   -1.80570 
  -1.80569   -1.80556   -1.80525   -1.80491   -1.80477   -1.80491   -1.80525   -1.80556   -1.80569 
  -1.80574   -1.80560   -1.80526   -1.80491   -1.80484   -1.80491   -1.80526   -1.80560   -1.80574 
  -1.80584   -1.80569   -1.80531   -1.80493   -1.80492   -1.80493   -1.80531   -1.80569   -1.80584 

  -1.80571   -1.80558   -1.80524   -1.80489   -1.80485   -1.80489   -1.80524   -1.80558   -1.80571 
  -1.80566   -1.80553   -1.80522   -1.80489   -1.80475   -1.80489   -1.80522   -1.80553   -1.80566 
  -1.80575   -1.80561   -1.80527   -1.80492   -1.80485   -1.80492   -1.80527   -1.80561   -1.80575 
  -1.80574   -1.80560   -1.80526   -1.80491   -1.80484   -1.80491   -1.80526   -1.80560   -1.80574 
  -1.80565   -1.80552   -1.80521   -1.80488   -1.80474   -1.80488   -1.80521   -1.80552   -1.80565 
  -1.80571   -1.80558   -1.80524   -1.80489   -1.80485   -1.80489   -1.80524   -1.80558   -1.80571 

  -1.80564   -1.80551   -1.80520   -1.80487   -1.80472   -1.80487   -1.80520   -1.80551   -1.80564 
  -1.80571   -1.80558   -1.80524   -1.80489   -1.80485   -1.80489   -1.80524   -1.80558   -1.80571 
  -1.80584   -1.80569   -1.80531   -1.80493   -1.80492   -1.80493   -1.80531   -1.80569   -1.80584 
  -1.80584   -1.80569   -1.80531   -1.80493   -1.80492   -1.80493   -1.80531   -1.80569   -1.80584 
  -1.80571   -1.80558   -1.80524   -1.80489   -1.80485   -1.80489   -1.80524   -1.80558   -1.80571 
  -1.80564   -1.80551   -1.80520   -1.80487   -1.80472   -1.80487   -1.80520   -1.80551   -1.80564 
BAND:  7
  -1.79787   -1.79892   -1.80141   -1.80379   -1.80467   -1.80379   -1.80141   -1.79892   -1.79787 
  -1.79780   -1.79885   -1.80133   -1.80371   -1.80448   -1.80371   -1.80133   -1.79885   -1.79780 
  -1.79762   -1.79867   -1.80115   -1.80354   -1.80432   -1.80354   -1.80115   -1.79867   -1.79762 
  -1.79762   -1.79867   -1.80115   -1.80354   -1.80432   -1.80354   -1.80115   -1.79867   -1.79762 
  -1.79780   -1.79885   -1.80133   -1.80371   -1.80448   -1.80371   -1.80133   -1.79885   -1.79780 
  -1.79787   -1.79892   -1.80141   -1.80379   -1.80467   -1.80379   -1.80141   -1.79892   -1.79787 

  -1.79780   -1.79885   -1.80133   -1.80371   -1.80448   -1.80371   -1.80133   -1.79885   -1.79780 
  -1.79775   -1.79880   -1.80128   -1.80366   -1.80455   -1.80366   -1.80128   -1.79880   -1.79775 
  -1.79760   -1.79865   -1.80115   -1.80356   -1.80444   -1.80356   -1.80115   -1.79865   -1.79760 
  -1.79760   -1.79865   -1.80115   -1.80356   -1.80444   -1.80356   -1.80115   -1.79865   -1.79760 
  -1.79775   -1.79880   -1.80128   -1.80366   -1.80455   -1.80366   -1.80128   -1.79880   -1.79775 
  -1.79780   -1.79885   -1.80133   -1.80371   -1.80448   -1.80371   -1.80133   -1.79885   -1.79780 

  -1.79762   -1.79867   -1.80115   -1.80354   -1.80432   -1.80354   -1.80115   -1.79867   -1.79762 
  -1.79760   -1.79865   -1.80115   -1.80356   -1.80444   -1.80356   -1.80115   -1.79865   -1.79760 
  -1.79754   -1.79859   -1.80112   -1.80360   -1.80460   -1.80360   -1.80112   -1.79859   -1.79754 
  -1.79754   -1.79859   -1.80112   -1.80360   -1.80460   -1.80360   -1.80112   -1.79859   -1.79754 
  -1.79760   -1.79865   -1.80115   -1.80356   -1.80444   -1.80356   -1.80115   -1.79865   -1.79760 
  -1.79762   -1.79867   -1.80115   -1.80354   -1.80432   -1.80354   -1.80115   -1.79867   -1.79762 

  -1.79762   -1.79867   -1.80115   -1.80354   -1.80432   -1.80354   -1.80115   -1.79867   -1.79762 
  -1.79760   -1.79865   -1.80115   -1.80356   -1.80444   -1.80356   -1.80115   -1.79865   -1.79760 
  -1.79754   -1.79859   -1.80112   -1.80360   -1.80460   -1.80360   -1.80112   -1.79859   -1.79754 
  -1.79754   -1.79859   -1.80112   -1.80360   -1.80460   -1.80360   -1.80112   -1.79859   -1.79754 
  -1.79760   -1.79865   -1.80115   -1.80356   -1.80444   -1.80356   -1.80115   -1.79865   -1.79760 
  -1.79762   -1.79867   -1.80115   -1.80354   -1.80432   -1.80354   -1.80115   -1.79867   -1.79762 

  -1.79780   -1.79885   -1.80133   -1.80371   -1.80448   -1.80371   -1.80133   -1.79885   -1.79780 
  -1.79775   -1.79880   -1.80128   -1.80366   -1.80455   -1.80366   -1.80128   -1.79880   -1.79775 
  -1.79760   -1.79865   -1.80115   -1.80356   -1.80444   -1.80356   -1.80115   -1.79865   -1.79760 
  -1.79760   -1.79865   -1.80115   -1.80356   -1.80444   -1.80356   -1.80115   -1.79865   -1.79760 
  -1.79775   -1.79880   -1.80128   -1.80366   -1.80455   -1.80366   -1.80128   -1.79880   -1.79775 
  -1.79780   -1.79885   -1.80133   -1.80371   -1.80448   -1.80371   -1.80133   -1.79885   -1.79780 

  -1.79787   -1.79892   -1.80141   -1.80379   -1.80467   -1.80379   -1.80141   -1.79892   -1.79787 
  -1.79780   -1.79885   -1.80133   -1.80371   -1.80448   -1.80371   -1.80133   -1.79885   -1.79780 
  -1.79762   -1.79867   -1.80115   -1.80354   -1.80432   -1.80354   -1.80115   -1.79867   -1.79762 
  -1.79762   -1.79867   -1.80115   -1.80354   -1.80432   -1.80354   -1.80115   -1.79867   -1.79762 
  -1.79780   -1.79885   -1.80133   -1.80371   -1.80448   -1.80371   -1.80133   -1.79885   -1.79780 
  -1.79787   -1.79892   -1.80141   -1.80379   -1.80467   -1.80379   -1.80141   -1.79892   -1.79787 
BAND:  8
  -1.79713   -1.79821   -1.80083   -1.80349   -1.80467   -1.80349   -1.80083   -1.79821   -1.79713 
  -1.79720   -1.79828   -1.80087   -1.80345   -1.80448   -1.80345   -1.80087   -1.79828   -1.79720 
  -1.79739   -1.79845   -1.80098   -1.80344   -1.80432   -1.80344   -1.80098   -1.79845   -1.79739 
  -1.79739   -1.79845   -1.80098   -1.80344   -1.80432   -1.80344   -1.80098   -1.79845   -1.79739 
  -1.79720   -1.79828   -1.80087   -1.80345   -1.80448   -1.80345   -1.80087   -1.79828   -1.79720 
  -1.79713   -1.79821   -1.80083   -1.80349   -1.80467   -1.80349   -1.80083   -1.79821   -1.79713 

  -1.79720   -1.79828   -1.80087   -1.80345   -1.80448   -1.80345   -1.80087   -1.79828   -1.79720 
  -1.79726   -1.79833   -1.80091   -1.80346   -1.80438   -1.80346   -1.80091   -1.79833   -1.79726 
  -1.79741   -1.79847   -1.80101   -1.80349   -1.80436   -1.80349   -1.80101   -1.79847   -1.79741 
  -1.79741   -1.79847   -1.80101   -1.80349   -1.80436   -1.80349   -1.80101   -1.79847   -1.79741 
  -1.79726   -1.79833   -1.80091   -1.80346   -1.80438   -1.80346   -1.80091   -1.79833   -1.79726 
  -1.79720   -1.79828   -1.80087   -1.80345   -1.80448   -1.80345   -1.80087   -1.79828   -1.79720 

  -1.79739   -1.79845   -1.80098   -1.80344   -1.80432   -1.80344   -1.80098   -1.79845   -1.79739 
  -1.79741   -1.79847   -1.80101   -1.80349   -1.80436   -1.80349   -1.80101   -1.79847   -1.79741 
  -1.79747   -1.79852   -1.80107   -1.80358   -1.80451   -1.80358   -1.80107   -1.79852   -1.79747 
  -1.79747   -1.79852   -1.80107   -1.80357   -1.80451   -1.80357   -1.80107   -1.79852   -1.79747 
  -1.79741   -1.79847   -1.80101   -1.80349   -1.80436   -1.80349   -1.80101   -1.79847   -1.79741 
  -1.79739   -1.79845   -1.80098   -1.80344   -1.80432   -1.80344   -1.80098   -1.79845   -1.79739 

  -1.79739   -1.79845   -1.80098   -1.80344   -1.80432   -1.80344   -1.80098   -1.79845   -1.79739 
  -1.79741   -1.79847   -1.80101   -1.80349   -1.80436   -1.80349   -1.80101   -1.79847   -1.79741 
  -1.79747   -1.79852   -1.80107   -1.80357   -1.80451   -1.80357   -1.80107   -1.79852   -1.79747 
  -1.79747   -1.79853   -1.80107   -1.80358   -1.80451   -1.80358   -1.80107   -1.79852   -1.79747 
  -1.79741   -1.79847   -1.80101   -1.80349   -1.80436   -1.80349   -1.80101   -1.79847   -1.79741 
  -1.79739   -1.79845   -1.80098   -1.80344   -1.80432   -1.80344   -1.80098   -1.79845   -1.79739 

  -1.79720   -1.79828   -1.80087   -1.80345   -1.80448   -1.80345   -1.80087   -1.79828   -1.79720 
  -1.79726   -1.79833   -1.80091   -1.80346   -1.80438   -1.80346   -1.80091   -1.79833   -1.79726 
  -1.79741   -1.79847   -1.80101   -1.80349   -1.80436   -1.80349   -1.80101   -1.79847   -1.79741 
  -1.79741   -1.79847   -1.80101   -1.80349   -1.80436   -1.80349   -1.80101   -1.79847   -1.79741 
  -1.79726   -1.79833   -1.80091   -1.80346   -1.80438   -1.80346   -1.80091   -1.79833   -1.79726 
  -1.79720   -1.79828   -1.80087   -1.80345   -1.80448   -1.80345   -1.80087   -1.79828   -1.79720 

  -1.79713   -1.79821   -1.80083   -1.80349   -1.80467   -1.80349   -1.80083   -1.79821   -1.79713 
  -1.79720   -1.79828   -1.80087   -1.80345   -1.80448   -1.80345   -1.80087   -1.79828   -1.79720 
  -1.79739   -1.79845   -1.80098   -1.80344   -1.80432   -1.80344   -1.80098   -1.79845   -1.79739 
  -1.79739   -1.79845   -1.80098   -1.80344   -1.80432   -1.80344   -1.80098   -1.79845   -1.79739 
  -1.79720   -1.79828   -1.80087   -1.80345   -1.80448   -1.80345   -1.80087   -1.79828   -1.79720 
  -1.79713   -1.79821   -1.80083   -1.80349   -1.80467   -1.80349   -1.80083   -1.79821   -1.79713 
BAND:  9
  -0.97789   -0.97228   -0.95702   -0.93686   -0.91845   -0.93686   -0.95702   -0.97228   -0.97789 
  -0.97197   -0.96662   -0.95223   -0.93365   -0.91746   -0.93365   -0.95223   -0.96662   -0.97197 
  -0.95551   -0.95098   -0.93916   -0.92521   -0.91559   -0.92521   -0.93916   -0.95098   -0.95551 
  -0.95551   -0.95097   -0.93916   -0.92521   -0.91559   -0.92521   -0.93916   -0.95098   -0.95551 
  -0.97197   -0.96662   -0.95223   -0.93365   -0.91746   -0.93365   -0.95223   -0.96662   -0.97197 
  -0.97789   -0.97228   -0.95702   -0.93686   -0.91845   -0.93686   -0.95702   -0.97228   -0.97789 

  -0.97197   -0.96662   -0.95223   -0.93365   -0.91746   -0.93365   -0.95223   -0.96662   -0.97197 