BEGIN_INFO
Fermi Energy: -0.272067201069
END_INFO

BEGIN_BLOCK_BANDGRID_3D
comment_line
BEGIN_BANDGRID_3D_simple_example
90
6 6 9
0.0 0.0 0.0
   0.7539501668    0.0000000000    0.0000000000
   0.0000000000    0.7539501668    0.0000000000
   0.0000000000    0.0000000000    1.1425841515
BAND:  1
  -2.95111   -2.95102   -2.95081   -2.95060   -2.95048   -2.95060   -2.95081   -2.95102   -2.95111 
  -2.95109   -2.95100   -2.95079   -2.95059   -2.95048   -2.95059   -2.95079   -2.95100   -2.95109 
  -2.95103   -2.95095   -2.95074   -2.95056   -2.95048   -2.95056   -2.95074   -2.95095   -2.95103 
  -2.95103   -2.95095   -2.95074   -2.95056   -2.95048   -2.95056   -2.95074   -2.95095   -2.95103 
  -2.95109   -2.95100   -2.95079   -2.95059   -2.95048   -2.95059   -2.95079   -2.95100   -2.95109 
  -2.95111   -2.95102   -2.95081   -2.95060   -2.95048   -2.95060   -2.95081   -2.95102   -2.95111 

  -2.95109   -2.95100   -2.95079   -2.95059   -2.95048   -2.95059   -2.95079   -2.95100   -2.95109 
  -2.95107   -2.95098   -2.95077   -2.95058   -2.95048   -2.95058   -2.95077   -2.95098   -2.95107 
  -2.95103   -2.95094   -2.95074   -2.95056   -2.95048   -2.95056   -2.95074   -2.95094   -2.95103 
  -2.95103   -2.95094   -2.95074   -2.95056   -2.95048   -2.95056   -2.95074   -2.95094   -2.95103 
  -2.95107   -2.95098   -2.95077   -2.95058   -2.95048   -2.95058   -2.95077   -2.95098   -2.95107 
  -2.95109   -2.95100   -2.95079   -2.95059   -2.95048   -2.95059   -2.95079   -2.95100   -2.95109 

  -2.95103   -2.95095   -2.95074   -2.95056   -2.95048   -2.95056   -2.95074   -2.95095   -2.95103 
  -2.95103   -2.95094   -2.95074   -2.95056   -2.95048   -2.95056   -2.95074   -2.95094   -2.95103 
  -2.95102   -2.95093   -2.95073   -2.95055   -2.95048   -2.95055   -2.95073   -2.95093   -2.95102 
  -2.95102   -2.95093   -2.95073   -2.95055   -2.95048   -2.95055   -2.95073   -2.95093   -2.95102 
  -2.95103   -2.95094   -2.95074   -2.95056   -2.95048   -2.95056   -2.95074   -2.95094   -2.95103 
  -2.95103   -2.95095   -2.95074   -2.95056   -2.95048   -2.95056   -2.95074   -2.95095   -2.95103 

  -2.95103   -2.95095   -2.95074   -2.95056   -2.95048   -2.95056   -2.95074   -2.95095   -2.95103 
  -2.95103   -2.95094   -2.95074   -2.95056   -2.95048   -2.95056   -2.95074   -2.95094   -2.95103 
  -2.95102   -2.95093   -2.95073   -2.95055   -2.95048   -2.95055   -2.95073   -2.95093   -2.95102 
  -2.95102   -2.95093   -2.95073   -2.95055   -2.95048   -2.95055   -2.95073   -2.95093   -2.95102 
  -2.95103   -2.95094   -2.95074   -2.95056   -2.95048   -2.95056   -2.95074   -2.95094   -2.95103 
  -2.95103   -2.95095   -2.95074   -2.95056   -2.95048   -2.95056   -2.95074   -2.95095   -2.95103 

  -2.95109   -2.95100   -2.95079   -2.95059   -2.95048   -2.95059   -2.95079   -2.95100   -2.95109 
  -2.95107   -2.95098   -2.95077   -2.95058   -2.95048   -2.95058   -2.95077   -2.95098   -2.95107 
  -2.95103   -2.95094   -2.95074   -2.95056   -2.95048   -2.95056   -2.95074   -2.95094   -2.95103 
  -2.95103   -2.95094   -2.95074   -2.95056   -2.95048   -2.95056   -2.95074   -2.95094   -2.95103 
  -2.95107   -2.95098   -2.95077   -2.95058   -2.95048   -2.95058   -2.95077   -2.95098   -2.95107 
  -2.95109   -2.95100   -2.95079   -2.95059   -2.95048   -2.95059   -2.95079   -2.95100   -2.95109 

  -2.95111   -2.95102   -2.95081   -2.95060   -2.95048   -2.95060   -2.95081   -2.95102   -2.95111 
  -2.95109   -2.95100   -2.95079   -2.95059   -2.95048   -2.95059   -2.95079   -2.95100   -2.95109 
  -2.95103   -2.95095   -2.95074   -2.95056   -2.95048   -2.95056   -2.95074   -2.95095   -2.95103 
  -2.95103   -2.95095   -2.95074   -2.95056   -2.95048   -2.95056   -2.95074   -2.95095   -2.95103 
  -2.95109   -2.95100   -2.95079   -2.95059   -2.95048   -2.95059   -2.95079   -2.95100   -2.95109 
  -2.95111   -2.95102   -2.95081   -2.95060   -2.95048   -2.95060   -2.95081   -2.95102   -2.95111 
BAND:  2
  -2.95084   -2.95077   -2.95061   -2.95049   -2.95048   -2.95049   -2.95061   -2.95077   -2.95084 
  -2.95088   -2.95080   -2.95063   -2.95050   -2.95048   -2.95050   -2.95063   -2.95080   -2.95088 
  -2.95096   -2.95087   -2.95069   -2.95053   -2.95048   -2.95053   -2.95069   -2.95087   -2.95096 
  -2.95096   -2.95087   -2.95069   -2.95053   -2.95048   -2.95053   -2.95069   -2.95087   -2.95096 
  -2.95088   -2.95080   -2.95063   -2.95050   -2.95048   -2.95050   -2.95063   -2.95080   -2.95088 
  -2.95084   -2.95077   -2.95061   -2.95049   -2.95048   -2.95049   -2.95061   -2.95077   -2.95084 

  -2.95088   -2.95080   -2.95063   -2.95050   -2.95048   -2.95050   -2.95063   -2.95080   -2.95088 
  -2.95091   -2.95083   -2.95065   -2.95051   -2.95048   -2.95051   -2.95065   -2.95083   -2.95091 
  -2.95097   -2.95089   -2.95069   -2.95053   -2.95048   -2.95053   -2.95069   -2.95089   -2.95097 
  -2.95097   -2.95089   -2.95069   -2.95053   -2.95048   -2.95053   -2.95069   -2.95089   -2.95097 
  -2.95091   -2.95083   -2.95065   -2.95051   -2.95048   -2.95051   -2.95065   -2.95083   -2.95091 
  -2.95088   -2.95080   -2.95063   -2.95050   -2.95048   -2.95050   -2.95063   -2.95080   -2.95088 

  -2.95096   -2.95087   -2.95069   -2.95053   -2.95048   -2.95053   -2.95069   -2.95087   -2.95096 
  -2.95097   -2.95089   -2.95069   -2.95053   -2.95048   -2.95053   -2.95069   -2.95089   -2.95097 
  -2.95101   -2.95091   -2.95071   -2.95054   -2.95048   -2.95054   -2.95071   -2.95091   -2.95101 
  -2.95101   -2.95091   -2.95071   -2.95054   -2.95048   -2.95054   -2.95071   -2.95091   -2.95101 
  -2.95097   -2.95089   -2.95069   -2.95053   -2.95048   -2.95053   -2.95069   -2.95089   -2.95097 
  -2.95096   -2.95087   -2.95069   -2.95053   -2.95048   -2.95053   -2.95069   -2.95087   -2.95096 

  -2.95096   -2.95087   -2.95069   -2.95053   -2.95048   -2.95053   -2.95069   -2.95087   -2.95096 
  -2.95097   -2.95089   -2.95069   -2.95053   -2.95048   -2.95053   -2.95069   -2.95089   -2.95097 
  -2.95101   -2.95091   -2.95071   -2.95054   -2.95048   -2.95054   -2.95071   -2.95091   -2.95101 
  -2.95101   -2.95091   -2.95071   -2.95054   -2.95048   -2.95054   -2.95071   -2.95091   -2.95101 
  -2.95097   -2.95089   -2.95069   -2.95053   -2.95048   -2.95053   -2.95069   -2.95089   -2.95097 
  -2.95096   -2.95087   -2.95069   -2.95053   -2.95048   -2.95053   -2.95069   -2.95087   -2.95096 

  -2.95088   -2.95080   -2.95063   -2.95050   -2.95048   -2.95050   -2.95063   -2.95080   -2.95088 
  -2.95091   -2.95083   -2.95065   -2.95051   -2.95048   -2.95051   -2.95065   -2.95083   -2.95091 
  -2.95097   -2.95089   -2.95069   -2.95053   -2.95048   -2.95053   -2.95069   -2.95089   -2.95097 
  -2.95097   -2.95089   -2.95069   -2.95053   -2.95048   -2.95053   -2.95069   -2.95089   -2.95097 
  -2.95091   -2.95083   -2.95065   -2.95051   -2.95048   -2.95051   -2.95065   -2.95083   -2.95091 
  -2.95088   -2.95080   -2.95063   -2.95050   -2.95048   -2.95050   -2.95063   -2.95080   -2.95088 

  -2.95084   -2.95077   -2.95061   -2.95049   -2.95048   -2.95049   -2.95061   -2.95077   -2.95084 
  -2.95088   -2.95080   -2.95063   -2.95050   -2.95048   -2.95050   -2.95063   -2.95080   -2.95088 
  -2.95096   -2.95087   -2.95069   -2.95053   -2.95048   -2.95053   -2.95069   -2.95087   -2.95096 
  -2.95096   -2.95087   -2.95069   -2.95053   -2.95048   -2.95053   -2.95069   -2.95087   -2.95096 
  -2.95088   -2.95080   -2.95063   -2.95050   -2.95048   -2.95050   -2.95063   -2.95080   -2.95088 
  -2.95084   -2.95077   -2.95061   -2.95049   -2.95048   -2.95049   -2.95061   -2.95077   -2.95084 
BAND:  3
  -1.91196   -1.91188   -1.91167   -1.91141   -1.91130   -1.91141   -1.91167   -1.91188   -1.91196 
  -1.91192   -1.91185   -1.91166   -1.91147   -1.91143   -1.91148   -1.91166   -1.91185   -1.91192 
  -1.91185   -1.91179   -1.91165   -1.91157   -1.91161   -1.91157   -1.91165   -1.91179   -1.91185 
  -1.91185   -1.91179   -1.91165   -1.91157   -1.91161   -1.91157   -1.91165   -1.91179   -1.91185 
  -1.91192   -1.91185   -1.91166   -1.91148   -1.91143   -1.91147   -1.91166   -1.91185   -1.91192 
  -1.91196   -1.91188   -1.91167   -1.91141   -1.91130   -1.91141   -1.91167   -1.91188   -1.91196 

  -1.91192   -1.91185   -1.91166   -1.91147   -1.91143   -1.91148   -1.91166   -1.91185   -1.91192 
  -1.91198   -1.91190   -1.91168   -1.91154   -1.91158   -1.91154   -1.91168   -1.91190   -1.91198 
  -1.91195   -1.91187   -1.91168   -1.91157   -1.91160   -1.91157   -1.91168   -1.91187   -1.91195 
  -1.91195   -1.91188   -1.91168   -1.91156   -1.91160   -1.91156   -1.91168   -1.91188   -1.91195 
  -1.91199   -1.91190   -1.91168   -1.91154   -1.91158   -1.91154   -1.91168   -1.91190   -1.91199 
  -1.91192   -1.91185   -1.91166   -1.91147   -1.91143   -1.91148   -1.91166   -1.91185   -1.91192 

  -1.91185   -1.91179   -1.91165   -1.91157   -1.91161   -1.91157   -1.91165   -1.91179   -1.91185 
  -1.91195   -1.91187   -1.91168   -1.91157   -1.91160   -1.91157   -1.91168   -1.91187   -1.91195 
  -1.91203   -1.91194   -1.91171   -1.91151   -1.91146   -1.91151   -1.91171   -1.91194   -1.91203 
  -1.91204   -1.91195   -1.91172   -1.91150   -1.91146   -1.91150   -1.91172   -1.91195   -1.91204 
  -1.91195   -1.91188   -1.91168   -1.91156   -1.91160   -1.91156   -1.91168   -1.91188   -1.91195 
  -1.91185   -1.91179   -1.91165   -1.91157   -1.91161   -1.91157   -1.91165   -1.91179   -1.91185 

  -1.91185   -1.91179   -1.91165   -1.91157   -1.91161   -1.91157   -1.91165   -1.91179   -1.91185 
  -1.91195   -1.91188   -1.91168   -1.91156   -1.91160   -1.91156   -1.91168   -1.91188   -1.91195 
  -1.91204   -1.91195   -1.91172   -1.91150   -1.91146   -1.91150   -1.91172   -1.91195   -1.91204 
  -1.91203   -1.91194   -1.91171   -1.91151   -1.91146   -1.91151   -1.91171   -1.91194   -1.91203 
  -1.91195   -1.91187   -1.91168   -1.91157   -1.91160   -1.91157   -1.91168   -1.91187   -1.91195 
  -1.91185   -1.91179   -1.91165   -1.91157   -1.91161   -1.91157   -1.91165   -1.91179   -1.91185 

  -1.91192   -1.91185   -1.91166   -1.91148   -1.91143   -1.91147   -1.91166   -1.91185   -1.91192 
  -1.91199   -1.91190   -1.91168   -1.91154   -1.91158   -1.91154   -1.91168   -1.91190   -1.91199 
  -1.91195   -1.91188   -1.91168   -1.91156   -1.91160   -1.91156   -1.91168   -1.91188   -1.91195 
  -1.91195   -1.91187   -1.91168   -1.91157   -1.91160   -1.91157   -1.91168   -1.91187   -1.91195 
  -1.91198   -1.91190   -1.91168   -1.91154   -1.91158   -1.91154   -1.91168   -1.91190   -1.91198 
  -1.91192   -1.91185   -1.91166   -1.91148   -1.91143   -1.91147   -1.91166   -1.91185   -1.91192 

  -1.91196   -1.91188   -1.91167   -1.91141   -1.91130   -1.91141   -1.91167   -1.91188   -1.91196 
  -1.91192   -1.91185   -1.91166   -1.91147   -1.91143   -1.91148   -1.91166   -1.91185   -1.91192 
  -1.91185   -1.91179   -1.91165   -1.91157   -1.91161   -1.91157   -1.91165   -1.91179   -1.91185 
  -1.91185   -1.91179   -1.91165   -1.91157   -1.91161   -1.91157   -1.91165   -1.91179   -1.91185 
  -1.91192   -1.91185   -1.91166   -1.91148   -1.91143   -1.91147   -1.91166   -1.91185   -1.91192 
  -1.91196   -1.91188   -1.91167   -1.91141   -1.91130   -1.91141   -1.91167   -1.91188   -1.91196 
BAND:  4
  -1.91196   -1.91188   -1.91166   -1.91141   -1.91130   -1.91141   -1.91166   -1.91188   -1.91196 
  -1.91190   -1.91184   -1.91165   -1.91146   -1.91142   -1.91146   -1.91165   -1.91184   -1.91190 
  -1.91183   -1.91178   -1.91164   -1.91156   -1.91160   -1.91156   -1.91164   -1.91178   -1.91183 
  -1.91183   -1.91178   -1.91164   -1.91156   -1.91160   -1.91156   -1.91164   -1.91178   -1.91183 
  -1.91190   -1.91184   -1.91165   -1.91146   -1.91142   -1.91146   -1.91165   -1.91184   -1.91190 
  -1.91196   -1.91188   -1.91166   -1.91141   -1.91130   -1.91141   -1.91166   -1.91188   -1.91196 

  -1.91190   -1.91184   -1.91165   -1.91146   -1.91142   -1.91146   -1.91165   -1.91184   -1.91190 
  -1.91183   -1.91178   -1.91163   -1.91143   -1.91132   -1.91143   -1.91163   -1.91178   -1.91183 
  -1.91185   -1.91180   -1.91166   -1.91150   -1.91146   -1.91150   -1.91166   -1.91180   -1.91185 
  -1.91184   -1.91179   -1.91165   -1.91150   -1.91146   -1.91150   -1.91165   -1.91179   -1.91184 
  -1.91182   -1.91177   -1.91163   -1.91144   -1.91133   -1.91144   -1.91163   -1.91177   -1.91182 
  -1.91190   -1.91184   -1.91165   -1.91146   -1.91142   -1.91146   -1.91165   -1.91184   -1.91190 

  -1.91183   -1.91178   -1.91164   -1.91156   -1.91160   -1.91156   -1.91164   -1.91178   -1.91183 
  -1.91185   -1.91180   -1.91166   -1.91150   -1.91146   -1.91150   -1.91166   -1.91180   -1.91185 
  -1.91198   -1.91190   -1.91170   -1.91146   -1.91135   -1.91146   -1.91170   -1.91190   -1.91198 
  -1.91197   -1.91189   -1.91169   -1.91147   -1.91135   -1.91147   -1.91169   -1.91189   -1.91197 
  -1.91184   -1.91179   -1.91165   -1.91150   -1.91146   -1.91150   -1.91165   -1.91179   -1.91184 
  -1.91183   -1.91178   -1.91164   -1.91156   -1.91160   -1.91156   -1.91164   -1.91178   -1.91183 

  -1.91183   -1.91178   -1.91164   -1.91156   -1.91160   -1.91156   -1.91164   -1.91178   -1.91183 
  -1.91184   -1.91179   -1.91165   -1.91150   -1.91146   -1.91150   -1.91165   -1.91179   -1.91184 
  -1.91197   -1.91189   -1.91169   -1.91147   -1.91135   -1.91147   -1.91169   -1.91189   -1.91197 
  -1.91198   -1.91190   -1.91170   -1.91146   -1.91135   -1.91146   -1.91170   -1.91190   -1.91198 
  -1.91185   -1.91180   -1.91166   -1.91150   -1.91146   -1.91150   -1.91166   -1.91180   -1.91185 
  -1.91183   -1.91178   -1.91164   -1.91156   -1.91160   -1.91156   -1.91164   -1.91178   -1.91183 

  -1.91190   -1.91184   -1.91165   -1.91146   -1.91142   -1.91146   -1.91165   -1.91184   -1.91190 
  -1.91182   -1.91177   -1.91163   -1.91144   -1.91133   -1.91144   -1.91163   -1.91177   -1.91182 
  -1.91184   -1.91179   -1.91165   -1.91150   -1.91146   -1.91150   -1.91165   -1.91179   -1.91184 
  -1.91185   -1.91180   -1.91166   -1.91150   -1.91146   -1.91150   -1.91166   -1.91180   -1.91185 
  -1.91183   -1.91178   -1.91163   -1.91143   -1.91132   -1.91143   -1.91163   -1.91178   -1.91183 
  -1.91190   -1.91184   -1.91165   -1.91146   -1.91142   -1.91146   -1.91165   -1.91184   -1.91190 

  -1.91196   -1.91188   -1.91166   -1.91141   -1.91130   -1.91141   -1.91166   -1.91188   -1.91196 
  -1.91190   -1.91184   -1.91165   -1.91146   -1.91142   -1.91146   -1.91165   -1.91184   -1.91190 
  -1.91183   -1.91178   -1.91164   -1.91156   -1.91160   -1.91156   -1.91164   -1.91178   -1.91183 
  -1.91183   -1.91178   -1.91164   -1.91156   -1.91160   -1.91156   -1.91164   -1.91178   -1.91183 
  -1.91190   -1.91184   -1.91165   -1.91146   -1.91142   -1.91146   -1.91165   -1.91184   -1.91190 
  -1.91196   -1.91188   -1.91166   -1.91141   -1.91130   -1.91141   -1.91166   -1.91188   -1.91196 
BAND:  5
  -1.90786   -1.90780   -1.90761   -1.90935   -1.91004   -1.90935   -1.90761   -1.90780   -1.90786 
  -1.90795   -1.90786   -1.90765   -1.90926   -1.90992   -1.90925   -1.90765   -1.90786   -1.90795 
  -1.90811   -1.90800   -1.90773   -1.90908   -1.90974   -1.90908   -1.90773   -1.90800   -1.90811 
  -1.90811   -1.90800   -1.90773   -1.90908   -1.90974   -1.90908   -1.90773   -1.90800   -1.90811 
  -1.90795   -1.90786   -1.90765   -1.90925   -1.90992   -1.90926   -1.90765   -1.90786   -1.90795 
  -1.90786   -1.90780   -1.90761   -1.90935   -1.91004   -1.90935   -1.90761   -1.90780   -1.90786 

  -1.90795   -1.90786   -1.90765   -1.90926   -1.90992   -1.90925   -1.90765   -1.90786   -1.90795 
  -1.90809   -1.90798   -1.90772   -1.90925   -1.91003   -1.90925   -1.90772   -1.90798   -1.90809 
  -1.90812   -1.90801   -1.90775   -1.90915   -1.90990   -1.90915   -1.90775   -1.90801   -1.90812 
  -1.90811   -1.90801   -1.90775   -1.90915   -1.90990   -1.90915   -1.90775   -1.90801   -1.90811 
  -1.90808   -1.90797   -1.90771   -1.90925   -1.91004   -1.90925   -1.90771   -1.90797   -1.90808 
  -1.90795   -1.90786   -1.90765   -1.90926   -1.90992   -1.90925   -1.90765   -1.90786   -1.90795 

  -1.90811   -1.90800   -1.90773   -1.90908   -1.90974   -1.90908   -1.90773   -1.90800   -1.90811 
  -1.90812   -1.90801   -1.90775   -1.90915   -1.90990   -1.90915   -1.90775   -1.90801   -1.90812 
  -1.90803   -1.90795   -1.90773   -1.90920   -1.91001   -1.90920   -1.90773   -1.90795   -1.90803 
  -1.90803   -1.90794   -1.90773   -1.90920   -1.91002   -1.90920   -1.90773   -1.90794   -1.90803 
  -1.90811   -1.90801   -1.90775   -1.90915   -1.90990   -1.90915   -1.90775   -1.90801   -1.90811 
  -1.90811   -1.90800   -1.90773   -1.90908   -1.90974   -1.90908   -1.90773   -1.90800   -1.90811 

  -1.90811   -1.90800   -1.90773   -1.90908   -1.90974   -1.90908   -1.90773   -1.90800   -1.90811 
  -1.90811   -1.90801   -1.90775   -1.90915   -1.90990   -1.90915   -1.90775   -1.90801   -1.90811 
  -1.90803   -1.90794   -1.90773   -1.90920   -1.91002   -1.90920   -1.90773   -1.90794   -1.90803 
  -1.90803   -1.90795   -1.90773   -1.90920   -1.91001   -1.90920   -1.90773   -1.90795   -1.90803 
  -1.90812   -1.90801   -1.90775   -1.90915   -1.90990   -1.90915   -1.90775   -1.90801   -1.90812 
  -1.90811   -1.90800   -1.90773   -1.90908   -1.90974   -1.90908   -1.90773   -1.90800   -1.90811 

  -1.90795   -1.90786   -1.90765   -1.90925   -1.90992   -1.90926   -1.90765   -1.90786   -1.90795 
  -1.90808   -1.90797   -1.90771   -1.90925   -1.91004   -1.90925   -1.90771   -1.90797   -1.90808 
  -1.90811   -1.90801   -1.90775   -1.90915   -1.90990   -1.90915   -1.90775   -1.90801   -1.90811 
  -1.90812   -1.90801   -1.90775   -1.90915   -1.90990   -1.90915   -1.90775   -1.90801   -1.90812 
  -1.90809   -1.90798   -1.90772   -1.90925   -1.91003   -1.90925   -1.90772   -1.90798   -1.90809 
  -1.90795   -1.90786   -1.90765   -1.90925   -1.90992   -1.90926   -1.90765   -1.90786   -1.90795 

  -1.90786   -1.90780   -1.90761   -1.90935   -1.91004   -1.90935   -1.90761   -1.90780   -1.90786 
  -1.90795   -1.90786   -1.90765   -1.90926   -1.90992   -1.90925   -1.90765   -1.90786   -1.90795 
  -1.90811   -1.90800   -1.90773   -1.90908   -1.90974   -1.90908   -1.90773   -1.90800   -1.90811 
  -1.90811   -1.90800   -1.90773   -1.90908   -1.90974   -1.90908   -1.90773   -1.90800   -1.90811 
  -1.90795   -1.90786   -1.90765   -1.90925   -1.90992   -1.90926   -1.90765   -1.90786   -1.90795 
  -1.90786   -1.90780   -1.90761   -1.90935   -1.91004   -1.90935   -1.90761   -1.90780   -1.90786 
BAND:  6
  -1.90785   -1.90779   -1.90760   -1.90907   -1.91004   -1.90907   -1.90760   -1.90779   -1.90785 
  -1.90794   -1.90786   -1.90764   -1.90903   -1.90991   -1.90904   -1.90764   -1.90786   -1.90794 
  -1.90808   -1.90798   -1.90771   -1.90901   -1.90974   -1.90901   -1.90771   -1.90798   -1.90808 
  -1.90808   -1.90798   -1.90771   -1.90901   -1.90974   -1.90901   -1.90771   -1.90798   -1.90808 
  -1.90794   -1.90786   -1.90764   -1.90904   -1.90991   -1.90903   -1.90764   -1.90786   -1.90794 
  -1.90785   -1.90779   -1.90760   -1.90907   -1.91004   -1.90907   -1.90760   -1.90779   -1.90785 

  -1.90794   -1.90786   -1.90764   -1.90903   -1.90991   -1.90904   -1.90764   -1.90786   -1.90794 
  -1.90788   -1.90780   -1.90761   -1.90900   -1.90974   -1.90901   -1.90761   -1.90780   -1.90788 
  -1.90798   -1.90790   -1.90768   -1.90903   -1.90974   -1.90903   -1.90768   -1.90790   -1.90798 
  -1.90799   -1.90790   -1.90769   -1.90903   -1.90973   -1.90903   -1.90768   -1.90790   -1.90799 
  -1.90789   -1.90781   -1.90762   -1.90900   -1.90974   -1.90900   -1.90762   -1.90781   -1.90789 
  -1.90794   -1.90786   -1.90764   -1.90903   -1.90991   -1.90904   -1.90764   -1.90786   -1.90794 

  -1.90808   -1.90798   -1.90771   -1.90901   -1.90974   -1.90901   -1.90771   -1.90798   -1.90808 
  -1.90798   -1.90790   -1.90768   -1.90903   -1.90974   -1.90903   -1.90768   -1.90790   -1.90798 
  -1.90795   -1.90787   -1.90768   -1.90913   -1.90990   -1.90913   -1.90768   -1.90787   -1.90795 
  -1.90796   -1.90788   -1.90768   -1.90912   -1.90989   -1.90912   -1.90768   -1.90788   -1.90796 
  -1.90799   -1.90790   -1.90768   -1.90903   -1.90973   -1.90903   -1.90769   -1.90790   -1.90799 
  -1.90808   -1.90798   -1.90771   -1.90901   -1.90974   -1.90901   -1.90771   -1.90798   -1.90808 

  -1.90808   -1.90798   -1.90771   -1.90901   -1.90974   -1.90901   -1.90771   -1.90798   -1.90808 
  -1.90799   -1.90790   -1.90769   -1.90903   -1.90973   -1.90903   -1.90768   -1.90790   -1.90799 
  -1.90796   -1.90788   -1.90768   -1.90912   -1.90989   -1.90912   -1.90768   -1.90788   -1.90796 
  -1.90795   -1.90787   -1.90768   -1.90913   -1.90990   -1.90913   -1.90768   -1.90787   -1.90795 
  -1.90798   -1.90790   -1.90768   -1.90903   -1.90974   -1.90903   -1.90768   -1.90790   -1.90798 
  -1.90808   -1.90798   -1.90771   -1.90901   -1.90974   -1.90901   -1.90771   -1.90798   -1.90808 

  -1.90794   -1.90786   -1.90764   -1.90904   -1.90991   -1.90903   -1.90764   -1.90786   -1.90794 
  -1.90789   -1.90781   -1.90762   -1.90900   -1.90974   -1.90900   -1.90762   -1.90781   -1.90789 
  -1.90799   -1.90790   -1.90768   -1.90903   -1.90973   -1.90903   -1.90769   -1.90790   -1.90799 
  -1.90798   -1.90790   -1.90768   -1.90903   -1.90974   -1.90903   -1.90768   -1.90790   -1.90798 
  -1.90788   -1.90780   -1.90761   -1.90901   -1.90974   -1.90900   -1.90761   -1.90780   -1.90788 
  -1.90794   -1.90786   -1.90764   -1.90904   -1.90991   -1.90903   -1.90764   -1.90786   -1.90794 

  -1.90785   -1.90779   -1.90760   -1.90907   -1.91004   -1.90907   -1.90760   -1.90779   -1.90785 
  -1.90794   -1.90786   -1.90764   -1.90903   -1.90991   -1.90904   -1.90764   -1.90786   -1.90794 
  -1.90808   -1.90798   -1.90771   -1.90901   -1.90974   -1.90901   -1.90771   -1.90798   -1.90808 
  -1.90808   -1.90798   -1.90771   -1.90901   -1.90974   -1.90901   -1.90771   -1.90798   -1.90808 
  -1.90794   -1.90786   -1.90764   -1.90904   -1.90991   -1.90903   -1.90764   -1.90786   -1.90794 
  -1.90785   -1.90779   -1.90760   -1.90907   -1.91004   -1.90907   -1.90760   -1.90779   -1.90785 
BAND:  7
  -1.90438   -1.90531   -1.90742   -1.90740   -1.90731   -1.90740   -1.90742   -1.90531   -1.90438 
  -1.90434   -1.90525   -1.90734   -1.90739   -1.90728   -1.90739   -1.90734   -1.90525   -1.90434 
  -1.90424   -1.90512   -1.90717   -1.90738   -1.90725   -1.90738   -1.90717   -1.90512   -1.90424 
  -1.90424   -1.90512   -1.90717   -1.90738   -1.90725   -1.90738   -1.90717   -1.90512   -1.90424 
  -1.90434   -1.90525   -1.90734   -1.90739   -1.90728   -1.90739   -1.90734   -1.90525   -1.90434 
  -1.90438   -1.90531   -1.90742   -1.90740   -1.90731   -1.90740   -1.90742   -1.90531   -1.90438 

  -1.90434   -1.90525   -1.90734   -1.90739   -1.90728   -1.90739   -1.90734   -1.90525   -1.90434 
  -1.90432   -1.90521   -1.90729   -1.90741   -1.90732   -1.90741   -1.90729   -1.90521   -1.90432 
  -1.90422   -1.90511   -1.90717   -1.90742   -1.90731   -1.90742   -1.90717   -1.90511   -1.90422 
  -1.90422   -1.90511   -1.90717   -1.90742   -1.90732   -1.90742   -1.90717   -1.90511   -1.90422 
  -1.90432   -1.90521   -1.90729   -1.90742   -1.90733   -1.90742   -1.90729   -1.90521   -1.90432 
  -1.90434   -1.90525   -1.90734   -1.90739   -1.90728   -1.90739   -1.90734   -1.90525   -1.90434 

  -1.90424   -1.90512   -1.90717   -1.90738   -1.90725   -1.90738   -1.90717   -1.90512   -1.90424 
  -1.90422   -1.90511   -1.90717   -1.90742   -1.90731   -1.90742   -1.90717   -1.90511   -1.90422 
  -1.90418   -1.90508   -1.90716   -1.90747   -1.90738   -1.90747   -1.90716   -1.90508   -1.90418 
  -1.90418   -1.90508   -1.90716   -1.90748   -1.90739   -1.90748   -1.90716   -1.90508   -1.90418 
  -1.90422   -1.90511   -1.90717   -1.90742   -1.90732   -1.90742   -1.90717   -1.90511   -1.90422 
  -1.90424   -1.90512   -1.90717   -1.90738   -1.90725   -1.90738   -1.90717   -1.90512   -1.90424 

  -1.90424   -1.90512   -1.90717   -1.90738   -1.90725   -1.90738   -1.90717   -1.90512   -1.90424 
  -1.90422   -1.90511   -1.90717   -1.90742   -1.90732   -1.90742   -1.90717   -1.90511   -1.90422 
  -1.90418   -1.90508   -1.90716   -1.90748   -1.90739   -1.90748   -1.90716   -1.90508   -1.90418 
  -1.90418   -1.90508   -1.90716   -1.90747   -1.90738   -1.90747   -1.90716   -1.90508   -1.90418 
  -1.90422   -1.90511   -1.90717   -1.90742   -1.90731   -1.90742   -1.90717   -1.90511   -1.90422 
  -1.90424   -1.90512   -1.90717   -1.90738   -1.90725   -1.90738   -1.90717   -1.90512   -1.90424 

  -1.90434   -1.90525   -1.90734   -1.90739   -1.90728   -1.90739   -1.90734   -1.90525   -1.90434 
  -1.90432   -1.90521   -1.90729   -1.90742   -1.90733   -1.90742   -1.90729   -1.90521   -1.90432 
  -1.90422   -1.90511   -1.90717   -1.90742   -1.90732   -1.90742   -1.90717   -1.90511   -1.90422 
  -1.90422   -1.90511   -1.90717   -1.90742   -1.90731   -1.90742   -1.90717   -1.90511   -1.90422 
  -1.90432   -1.90521   -1.90729   -1.90741   -1.90732   -1.90741   -1.90729   -1.90521   -1.90432 
  -1.90434   -1.90525   -1.90734   -1.90739   -1.90728   -1.90739   -1.90734   -1.90525   -1.90434 

  -1.90438   -1.90531   -1.90742   -1.90740   -1.90731   -1.90740   -1.90742   -1.90531   -1.90438 
  -1.90434   -1.90525   -1.90734   -1.90739   -1.90728   -1.90739   -1.90734   -1.90525   -1.90434 
  -1.90424   -1.90512   -1.90717   -1.90738   -1.90725   -1.90738   -1.90717   -1.90512   -1.90424 
  -1.90424   -1.90512   -1.90717   -1.90738   -1.90725   -1.90738   -1.90717   -1.90512   -1.90424 
  -1.90434   -1.90525   -1.90734   -1.90739   -1.90728   -1.90739   -1.90734   -1.90525   -1.90434 
  -1.90438   -1.90531   -1.90742   -1.90740   -1.90731   -1.90740   -1.90742   -1.90531   -1.90438 
BAND:  8
  -1.90391   -1.90480   -1.90692   -1.90739   -1.90730   -1.90739   -1.90692   -1.90480   -1.90391 
  -1.90396   -1.90485   -1.90694   -1.90738   -1.90727   -1.90738   -1.90694   -1.90485   -1.90396 
  -1.90408   -1.90497   -1.90701   -1.90737   -1.90724   -1.90737   -1.90701   -1.90497   -1.90408 
  -1.90408   -1.90497   -1.90701   -1.90737   -1.90724   -1.90737   -1.90701   -1.90497   -1.90408 
  -1.90396   -1.90485   -1.90694   -1.90738   -1.90727   -1.90738   -1.90694   -1.90485   -1.90396 
  -1.90391   -1.90480   -1.90692   -1.90739   -1.90730   -1.90739   -1.90692   -1.90480   -1.90391 

  -1.90396   -1.90485   -1.90694   -1.90738   -1.90727   -1.90738   -1.90694   -1.90485   -1.90396 
  -1.90399   -1.90489   -1.90697   -1.90737   -1.90724   -1.90737   -1.90697   -1.90489   -1.90399 
  -1.90410   -1.90499   -1.90706   -1.90740   -1.90727   -1.90740   -1.90706   -1.90499   -1.90410 
  -1.90409   -1.90499   -1.90706   -1.90739   -1.90726   -1.90739   -1.90706   -1.90499   -1.90409 
  -1.90399   -1.90489   -1.90697   -1.90736   -1.90723   -1.90736   -1.90697   -1.90489   -1.90399 
  -1.90396   -1.90485   -1.90694   -1.90738   -1.90727   -1.90738   -1.90694   -1.90485   -1.90396 

  -1.90408   -1.90497   -1.90701   -1.90737   -1.90724   -1.90737   -1.90701   -1.90497   -1.90408 
  -1.90410   -1.90499   -1.90706   -1.90740   -1.90727   -1.90740   -1.90706   -1.90499   -1.90410 
  -1.90413   -1.90503   -1.90713   -1.90746   -1.90735   -1.90746   -1.90713   -1.90503   -1.90413 
  -1.90413   -1.90503   -1.90713   -1.90745   -1.90735   -1.90745   -1.90713   -1.90503   -1.90413 
  -1.90409   -1.90499   -1.90706   -1.90739   -1.90726   -1.90739   -1.90706   -1.90499   -1.90409 
  -1.90408   -1.90497   -1.90701   -1.90737   -1.90724   -1.90737   -1.90701   -1.90497   -1.90408 

  -1.90408   -1.90497   -1.90701   -1.90737   -1.90724   -1.90737   -1.90701   -1.90497   -1.90408 
  -1.90409   -1.90499   -1.90706   -1.90739   -1.90726   -1.90739   -1.90706   -1.90499   -1.90409 
  -1.90413   -1.90503   -1.90713   -1.90745   -1.90735   -1.90745   -1.90713   -1.90503   -1.90413 
  -1.90413   -1.90503   -1.90713   -1.90746   -1.90735   -1.90746   -1.90713   -1.90503   -1.90413 
  -1.90410   -1.90499   -1.90706   -1.90740   -1.90727   -1.90740   -1.90706   -1.90499   -1.90410 
  -1.90408   -1.90497   -1.90701   -1.90737   -1.90724   -1.90737   -1.90701   -1.90497   -1.90408 

  -1.90396   -1.90485   -1.90694   -1.90738   -1.90727   -1.90738   -1.90694   -1.90485   -1.90396 
  -1.90399   -1.90489   -1.90697   -1.90736   -1.90723   -1.90736   -1.90697   -1.90489   -1.90399 
  -1.90409   -1.90499   -1.90706   -1.90739   -1.90726   -1.90739   -1.90706   -1.90499   -1.90409 
  -1.90410   -1.90499   -1.90706   -1.90740   -1.90727   -1.90740   -1.90706   -1.90499   -1.90410 
  -1.90399   -1.90489   -1.90697   -1.90737   -1.90724   -1.90737   -1.90697   -1.90489   -1.90399 
  -1.90396   -1.90485   -1.90694   -1.90738   -1.90727   -1.90738   -1.90694   -1.90485   -1.90396 

  -1.90391   -1.90480   -1.90692   -1.90739   -1.90730   -1.90739   -1.90692   -1.90480   -1.90391 
  -1.90396   -1.90485   -1.90694   -1.90738   -1.90727   -1.90738   -1.90694   -1.90485   -1.90396 
  -1.90408   -1.90497   -1.90701   -1.90737   -1.90724   -1.90737   -1.90701   -1.90497   -1.90408 
  -1.90408   -1.90497   -1.90701   -1.90737   -1.90724   -1.90737   -1.90701   -1.90497   -1.90408 
  -1.90396   -1.90485   -1.90694   -1.90738   -1.90727   -1.90738   -1.90694   -1.90485   -1.90396 
  -1.90391   -1.90480   -1.90692   -1.90739   -1.90730   -1.90739   -1.90692   -1.90480   -1.90391 
BAND:  9
  -0.96568   -0.95986   -0.94400   -0.92304   -0.90412   -0.92304   -0.94400   -0.95986   -0.96568 
  -0.95963   -0.95406   -0.93906   -0.91982   -0.90347   -0.91982   -0.93906   -0.95406   -0.95963 
  -0.94272   -0.93790   -0.92549   -0.91132   -0.90237   -0.91132   -0.92549   -0.93790   -0.94272 
  -0.94272   -0.93790   -0.92549   -0.91132   -0.90237   -0.91132   -0.92549   -0.93790   -0.94272 
  -0.95963   -0.95406   -0.93906   -0.91982   -0.90347   -0.91982   -0.93906   -0.95406   -0.95963 
  -0.96568   -0.95986   -0.94400   -0.92304   -0.90412   -0.92304   -0.94400   -0.95986   -0.96568 

  -0.95963   -0.95406   -0.93906   -0.91982   -0.90347   -0.91982   -0.93906   -0.95406   -0.95963 