                                                                                     
                             WELCOME TO ABACUS                                       
                                                                                     
               'Atomic-orbital Based Ab-initio Computation at UStc'                  
                                                                                     
                     Website: http://abacus.ustc.edu.cn/                             
                                                                                     
    Version: Parallel, in development
    Processor Number is 8
    Start Time is Tue Jul  5 15:19:49 2022
                                                                                     
 ------------------------------------------------------------------------------------

 READING GENERAL INFORMATION
                           global_out_dir = OUT.ABACUS/
                           global_in_card = INPUT
                               pseudo_dir = 
                              orbital_dir = 
                              pseudo_type = upf
                                    DRANK = 1
                                    DSIZE = 8
                                   DCOLOR = 1
                                    GRANK = 1
                                    GSIZE = 1




 >>>>>>>>>>>>>>>>>>>>>>>>>>>>>>>>>>>>>>>>>>>>>>>>>>>>>>>>>>>>>>>>>>>>>>
 |                                                                    |
 | Reading atom information in unitcell:                              |
 | From the input file and the structure file we know the number of   |
 | different elments in this unitcell, then we list the detail        |
 | information for each element, especially the zeta and polar atomic |
 | orbital number for each element. The total atom number is counted. |
 | We calculate the nearest atom distance for each atom and show the  |
 | Cartesian and Direct coordinates for each atom. We list the file   |
 | address for atomic orbitals. The volume and the lattice vectors    |
 | in real and reciprocal space is also shown.                        |
 |                                                                    |
 <<<<<<<<<<<<<<<<<<<<<<<<<<<<<<<<<<<<<<<<<<<<<<<<<<<<<<<<<<<<<<<<<<<<<<




 READING UNITCELL INFORMATION
                                    ntype = 1
                 atom label for species 1 = Sn
                  lattice constant (Bohr) = 23.4538
              lattice constant (Angstrom) = 12.4112

 READING ATOM TYPE 1
                               atom label = Sn
                      L=0, number of zeta = 2
                      L=1, number of zeta = 2
                      L=2, number of zeta = 1
             number of atom for this type = 64
                      start magnetization = FALSE
                      start magnetization = FALSE
                      start magnetization = FALSE
                      start magnetization = FALSE
                      start magnetization = FALSE
                      start magnetization = FALSE
                      start magnetization = FALSE
                      start magnetization = FALSE
                      start magnetization = FALSE
                      start magnetization = FALSE
                      start magnetization = FALSE
                      start magnetization = FALSE
                      start magnetization = FALSE
                      start magnetization = FALSE
                      start magnetization = FALSE
                      start magnetization = FALSE
                      start magnetization = FALSE
                      start magnetization = FALSE
                      start magnetization = FALSE
                      start magnetization = FALSE
                      start magnetization = FALSE
                      start magnetization = FALSE
                      start magnetization = FALSE
                      start magnetization = FALSE
                      start magnetization = FALSE
                      start magnetization = FALSE
                      start magnetization = FALSE
                      start magnetization = FALSE
                      start magnetization = FALSE
                      start magnetization = FALSE
                      start magnetization = FALSE
                      start magnetization = FALSE
                      start magnetization = FALSE
                      start magnetization = FALSE
                      start magnetization = FALSE
                      start magnetization = FALSE
                      start magnetization = FALSE
                      start magnetization = FALSE
                      start magnetization = FALSE
                      start magnetization = FALSE
                      start magnetization = FALSE
                      start magnetization = FALSE
                      start magnetization = FALSE
                      start magnetization = FALSE
                      start magnetization = FALSE
                      start magnetization = FALSE
                      start magnetization = FALSE
                      start magnetization = FALSE
                      start magnetization = FALSE
                      start magnetization = FALSE
                      start magnetization = FALSE
                      start magnetization = FALSE
                      start magnetization = FALSE
                      start magnetization = FALSE
                      start magnetization = FALSE
                      start magnetization = FALSE
                      start magnetization = FALSE
                      start magnetization = FALSE
                      start magnetization = FALSE
                      start magnetization = FALSE
                      start magnetization = FALSE
                      start magnetization = FALSE
                      start magnetization = FALSE
                      start magnetization = FALSE

                        TOTAL ATOM NUMBER = 64

 DIRECT COORDINATES
         atom                   x                   y                   z                 mag                  vx                  vy                  vz
     taud_Sn1                   0                   0                   0                   0                   0                   0                   0
     taud_Sn2                   0                0.25                0.25                   0                   0                   0                   0
     taud_Sn3                0.25                   0                0.25                   0                   0                   0                   0
     taud_Sn4                0.25                0.25                   0                   0                   0                   0                   0
     taud_Sn5               0.375               0.125               0.375                   0                   0                   0                   0
     taud_Sn6               0.125               0.125               0.125                   0                   0                   0                   0
     taud_Sn7               0.125               0.375               0.375                   0                   0                   0                   0
     taud_Sn8               0.375               0.375               0.125                   0                   0                   0                   0
     taud_Sn9                 0.5                   0                   0                   0                   0                   0                   0
    taud_Sn10                 0.5                0.25                0.25                   0                   0                   0                   0
    taud_Sn11                0.75                   0                0.25                   0                   0                   0                   0
    taud_Sn12                0.75                0.25                   0                   0                   0                   0                   0
    taud_Sn13               0.875               0.125               0.375                   0                   0                   0                   0
    taud_Sn14               0.625               0.125               0.125                   0                   0                   0                   0
    taud_Sn15               0.625               0.375               0.375                   0                   0                   0                   0
    taud_Sn16               0.875               0.375               0.125                   0                   0                   0                   0
    taud_Sn17                   0                 0.5                   0                   0                   0                   0                   0
    taud_Sn18                   0                0.75                0.25                   0                   0                   0                   0
    taud_Sn19                0.25                 0.5                0.25                   0                   0                   0                   0
    taud_Sn20                0.25                0.75                   0                   0                   0                   0                   0
    taud_Sn21               0.375               0.625               0.375                   0                   0                   0                   0
    taud_Sn22               0.125               0.625               0.125                   0                   0                   0                   0
    taud_Sn23               0.125               0.875               0.375                   0                   0                   0                   0
    taud_Sn24               0.375               0.875               0.125                   0                   0                   0                   0
    taud_Sn25                 0.5                 0.5                   0                   0                   0                   0                   0
    taud_Sn26                 0.5                0.75                0.25                   0                   0                   0                   0
    taud_Sn27                0.75                 0.5                0.25                   0                   0                   0                   0
    taud_Sn28                0.75                0.75                   0                   0                   0                   0                   0
    taud_Sn29               0.875               0.625               0.375                   0                   0                   0                   0
    taud_Sn30               0.625               0.625               0.125                   0                   0                   0                   0
    taud_Sn31               0.625               0.875               0.375                   0                   0                   0                   0
    taud_Sn32               0.875               0.875               0.125                   0                   0                   0                   0
    taud_Sn33                   0                   0                 0.5                   0                   0                   0                   0
    taud_Sn34                   0                0.25                0.75                   0                   0                   0                   0
    taud_Sn35                0.25                   0                0.75                   0                   0                   0                   0
    taud_Sn36                0.25                0.25                 0.5                   0                   0                   0                   0
    taud_Sn37               0.375               0.125               0.875                   0                   0                   0                   0
    taud_Sn38               0.125               0.125               0.625                   0                   0                   0                   0
    taud_Sn39               0.125               0.375               0.875                   0                   0                   0                   0
    taud_Sn40               0.375               0.375               0.625                   0                   0                   0                   0
    taud_Sn41                 0.5                   0                 0.5                   0                   0                   0                   0
    taud_Sn42                 0.5                0.25                0.75                   0                   0                   0                   0
    taud_Sn43                0.75                   0                0.75                   0                   0                   0                   0
    taud_Sn44                0.75                0.25                 0.5                   0                   0                   0                   0
    taud_Sn45               0.875               0.125               0.875                   0                   0                   0                   0
    taud_Sn46               0.625               0.125               0.625                   0                   0                   0                   0
    taud_Sn47               0.625               0.375               0.875                   0                   0                   0                   0
    taud_Sn48               0.875               0.375               0.625                   0                   0                   0                   0
    taud_Sn49                   0                 0.5                 0.5                   0                   0                   0                   0
    taud_Sn50                   0                0.75                0.75                   0                   0                   0                   0
    taud_Sn51                0.25                 0.5                0.75                   0                   0                   0                   0
    taud_Sn52                0.25                0.75                 0.5                   0                   0                   0                   0
    taud_Sn53               0.375               0.625               0.875                   0                   0                   0                   0
    taud_Sn54               0.125               0.625               0.625                   0                   0                   0                   0
    taud_Sn55               0.125               0.875               0.875                   0                   0                   0                   0
    taud_Sn56               0.375               0.875               0.625                   0                   0                   0                   0
    taud_Sn57                 0.5                 0.5                 0.5                   0                   0                   0                   0
    taud_Sn58                 0.5                0.75                0.75                   0                   0                   0                   0
    taud_Sn59                0.75                 0.5                0.75                   0                   0                   0                   0
    taud_Sn60                0.75                0.75                 0.5                   0                   0                   0                   0
    taud_Sn61               0.875               0.625               0.875                   0                   0                   0                   0
    taud_Sn62               0.625               0.625               0.625                   0                   0                   0                   0
    taud_Sn63               0.625               0.875               0.875                   0                   0                   0                   0
    taud_Sn64               0.875               0.875               0.625                   0                   0                   0                   0


 READING ORBITAL FILE NAMES FOR LCAO
 orbital file: ./Sn_pz-bhs_8.0au_16Ry_2s2p1d

                          Volume (Bohr^3) = 12901.5
                             Volume (A^3) = 1911.8

 Lattice vectors: (Cartesian coordinate: in unit of a_0)
                   +1                  +0                  +0
                   +0                  +1                  +0
                   +0                  +0                  +1
 Reciprocal vectors: (Cartesian coordinate: in unit of 2 pi/a_0)
                   +1                  +0                  +0
                   +0                  +1                  +0
                   +0                  +0                  +1




 >>>>>>>>>>>>>>>>>>>>>>>>>>>>>>>>>>>>>>>>>>>>>>>>>>>>>>>>>>>>>>>>>>>>>>
 |                                                                    |
 | Reading pseudopotentials files:                                    |
 | The pseudopotential file is in UPF format. The 'NC' indicates that |
 | the type of pseudopotential is 'norm conserving'. Functional of    |
 | exchange and correlation is decided by 4 given parameters in UPF   |
 | file.  We also read in the 'core correction' if there exists.      |
 | Also we can read the valence electrons number and the maximal      |
 | angular momentum used in this pseudopotential. We also read in the |
 | trail wave function, trail atomic density and local-pseudopotential|
 | on logrithmic grid. The non-local pseudopotential projector is also|
 | read in if there is any.                                           |
 |                                                                    |
 <<<<<<<<<<<<<<<<<<<<<<<<<<<<<<<<<<<<<<<<<<<<<<<<<<<<<<<<<<<<<<<<<<<<<<




                PAO radial cut off (Bohr) = 15

 Read in pseudopotential file is ./Sn.pz-bhs.UPF
                     pseudopotential type = NC
          exchange-correlation functional = PZ
                 nonlocal core correction = 0
                        valence electrons = 4
                                     lmax = 1
                           number of zeta = 2
                     number of projectors = 2
                           L of projector = 0
                           L of projector = 1
     initial pseudo atomic orbital number = 256
                                   NLOCAL = 832




 >>>>>>>>>>>>>>>>>>>>>>>>>>>>>>>>>>>>>>>>>>>>>>>>>>>>>>>>>>>>>>>>>>>>>>
 |                                                                    |
 | Setup plane waves of charge/potential:                             |
 | Use the energy cutoff and the lattice vectors to generate the      |
 | dimensions of FFT grid. The number of FFT grid on each processor   |
 | is 'nrxx'. The number of plane wave basis in reciprocal space is   |
 | different for charege/potential and wave functions. We also set    |
 | the 'sticks' for the parallel of FFT. The number of plane waves    |
 | is 'npw' in each processor.                                        |
 <<<<<<<<<<<<<<<<<<<<<<<<<<<<<<<<<<<<<<<<<<<<<<<<<<<<<<<<<<<<<<<<<<<<<<





 SETUP THE PLANE WAVE BASIS
 energy cutoff for charge/potential (unit:Ry) = 120
          [fft grid for charge/potential] = 90, 90, 90
                      [fft grid division] = 2, 2, 2
      [big fft grid for charge/potential] = 45, 45, 45
                                     nbxx = 12150
                                     nrxx = 97200

 SETUP PLANE WAVES FOR CHARGE/POTENTIAL
                    number of plane waves = 286241
                         number of sticks = 5249

 PARALLEL PW FOR CHARGE/POTENTIAL
     PROC   COLUMNS(POT)             PW
        1            656          35780
        2            656          35780
        3            656          35780
        4            656          35780
        5            656          35780
        6            656          35780
        7            656          35780
        8            657          35781
 --------------- sum -------------------
        8           5249         286241
                            number of |g| = 1379
                                  max |g| = 1672
                                  min |g| = 2

 SETUP THE ELECTRONS NUMBER
            electron number of element Sn = 4
      total electron number of element Sn = 256
                           occupied bands = 128
                                   NLOCAL = 832
                                   NBANDS = 600
                                   NBANDS = 600
 DONE : SETUP UNITCELL Time : 0.0896821 (SEC)





 >>>>>>>>>>>>>>>>>>>>>>>>>>>>>>>>>>>>>>>>>>>>>>>>>>>>>>>>>>>>>>>>>>>>>>
 |                                                                    |
 | Setup K-points                                                     |
 | We setup the k-points according to input parameters.               |
 | The reduced k-points are set according to symmetry operations.     |
 | We treat the spin as another set of k-points.                      |
 |                                                                    |
 <<<<<<<<<<<<<<<<<<<<<<<<<<<<<<<<<<<<<<<<<<<<<<<<<<<<<<<<<<<<<<<<<<<<<<





 SETUP K-POINTS
                                    nspin = 1
                   Input type of k points = Monkhorst-Pack(Gamma)
is_mp : 1
                                   nkstot = 1
                               nkstot_ibz = 1
      IBZ             DirectX             DirectY             DirectZ              Weight    ibz2bz
        1                   0                   0                   0                   1         0
                               nkstot now = 1

  KPOINTS            DIRECT_X            DIRECT_Y            DIRECT_Z              WEIGHT
        1                   0                   0                   0                   1

           k-point number in this process = 1
       minimum distributed K point number = 1

  KPOINTS         CARTESIAN_X         CARTESIAN_Y         CARTESIAN_Z              WEIGHT
        1                   0                   0                   0                   2

  KPOINTS            DIRECT_X            DIRECT_Y            DIRECT_Z              WEIGHT
        1                   0                   0                   0                   2
 DONE : INIT K-POINTS Time : 0.090919 (SEC)





 >>>>>>>>>>>>>>>>>>>>>>>>>>>>>>>>>>>>>>>>>>>>>>>>>>>>>>>>>>>>>>>>>>>>>>
 |                                                                    |
 | Setup plane waves of wave functions:                               |
 | Use the energy cutoff and the lattice vectors to generate the      |
 | dimensions of FFT grid. The number of FFT grid on each processor   |
 | is 'nrxx'. The number of plane wave basis in reciprocal space is   |
 | different for charege/potential and wave functions. We also set    |
 | the 'sticks' for the parallel of FFT. The number of plane wave of  |
 | each k-point is 'npwk[ik]' in each processor                       |
 <<<<<<<<<<<<<<<<<<<<<<<<<<<<<<<<<<<<<<<<<<<<<<<<<<<<<<<<<<<<<<<<<<<<<<





 SETUP PLANE WAVES FOR WAVE FUNCTIONS
     energy cutoff for wavefunc (unit:Ry) = 30
            [fft grid for wave functions] = 90, 90, 90
                    number of plane waves = 35825
                         number of sticks = 1313

 PARALLEL PW FOR WAVE FUNCTIONS
     PROC   COLUMNS(POT)             PW
        1            164           4478
        2            164           4478
        3            164           4478
        4            164           4478
        5            164           4478
        6            164           4478
        7            164           4478
        8            165           4479
 --------------- sum -------------------
        8           1313          35825
 DONE : INIT PLANEWAVE Time : 0.100032 (SEC)

 DONE : INIT CHARGE Time : 0.18126 (SEC)

                                 init_chg = atomic
 DONE : INIT POTENTIAL Time : 0.219314 (SEC)





 >>>>>>>>>>>>>>>>>>>>>>>>>>>>>>>>>>>>>>>>>>>>>>>>>>>>>>>>>>>>>>>>>>>>>>
 |                                                                    |
 | Setup numerical orbitals:                                          |
 | This part setup: numerical atomic orbitals, non-local projectors   |
 | and neutral potential (1D). The atomic orbitals information        |
 | including the radius, angular momentum and zeta number.            |
 | The neutral potential is the sum of local part of pseudopotential  |
 | and potential given by atomic charge, they will cancel out beyond  |
 | a certain radius cutoff, because the Z/r character.                |
 |                                                                    |
 <<<<<<<<<<<<<<<<<<<<<<<<<<<<<<<<<<<<<<<<<<<<<<<<<<<<<<<<<<<<<<<<<<<<<<





 SETUP ONE DIMENSIONAL ORBITALS/POTENTIAL
                        delta k  (1/Bohr) = 0.01
                        delta r    (Bohr) = 0.01
                        dr_uniform (Bohr) = 0.001
                        rmax       (Bohr) = 30
                                    kmesh = 551
      ORBITAL  L  N      nr      dr    RCUT  CHECK_UNIT    NEW_UNIT
            1  0  0     801    0.01       8           1           1
            2  0  1     801    0.01       8           1           1
            3  1  0     801    0.01       8           1           1
            4  1  1     801    0.01       8           1           1
            5  2  0     801    0.01       8           1           1
 SET NONLOCAL PSEUDOPOTENTIAL PROJECTORS
 max number of nonlocal projetors among all species is 2

 SETUP THE TWO-CENTER INTEGRATION TABLES

 SETUP THE DIVISION OF H/S MATRIX
 divide the H&S matrix using 2D block algorithms.
                                     nb2d = 32
                  trace_loc_row dimension = 832
                  trace_loc_col dimension = 832
                                     nloc = 93184

 -------------------------------------------
 STEP OF MOLECULAR DYNAMICS : 0
 -------------------------------------------
              searching radius is (Bohr)) = 16
         searching radius unit is (Bohr)) = 23.5
        enter setAlltoallvParameter, nblk = 32
checkpoint 2
                                     pnum = 0
                                     prow = 0
                                     pcol = 0
                             nRow_in_proc = 320
                             nCol_in_proc = 175
                                     pnum = 1
                                     prow = 0
                                     pcol = 1
                             nRow_in_proc = 320
                             nCol_in_proc = 162
                                     pnum = 2
                                     prow = 0
                                     pcol = 2
                             nRow_in_proc = 320
                             nCol_in_proc = 145
                                     pnum = 3
                                     prow = 0
                                     pcol = 3
                             nRow_in_proc = 320
                             nCol_in_proc = 142
                                     pnum = 4
                                     prow = 1
                                     pcol = 0
                             nRow_in_proc = 304
                             nCol_in_proc = 175
                                     pnum = 5
                                     prow = 1
                                     pcol = 1
                             nRow_in_proc = 304
                             nCol_in_proc = 162
                                     pnum = 6
                                     prow = 1
                                     pcol = 2
                             nRow_in_proc = 304
                             nCol_in_proc = 145
                                     pnum = 7
                                     prow = 1
                                     pcol = 3
                             nRow_in_proc = 304
                             nCol_in_proc = 142
receiver_size is 389376 ; receiver_size of each process is:
56000 51840 46400 45440 53200 49248 44080 43168 
sender_size is 493993 ; sender_size of each process is:
56000 58450 76171 71198 67776 67070 48032 49296 
                         gamma_only_local = 1

 LCAO ALGORITHM --------------- ION=   1  ELEC=   1--------------------------------

vlocal exchange index is built
                          buffer size(M): = 6
                    buffer index size(M): = 6
 vlocal data are put in sender_buffer, size(M): = 2
 vlocal data are exchanged, received size(M): = 3

K-S equation was solved by genelpa2

eigenvalues were copied to ekb
              cal_dk_gamma_from_2D, NSPIN = 1
 number of non-zero elements in sender_buffer = 493981
                              sender_size = 493993
                       last sender_buffer = 0.0389
 number of non-zero elements in receiver_buffer = 389372
                            receiver_size = 389376
                     last receiver_buffer = 0.00101

 Density error is 0.152165005489

 LCAO ALGORITHM --------------- ION=   1  ELEC=   2--------------------------------
 vlocal data are put in sender_buffer, size(M): = 2
 vlocal data are exchanged, received size(M): = 3

K-S equation was solved by genelpa2

eigenvalues were copied to ekb
              cal_dk_gamma_from_2D, NSPIN = 1
 number of non-zero elements in sender_buffer = 493993
                              sender_size = 493993
                       last sender_buffer = 0.036974255332
 number of non-zero elements in receiver_buffer = 389376
                            receiver_size = 389376
                     last receiver_buffer = 0.00104265192916

 Density error is 0.084884794745

 LCAO ALGORITHM --------------- ION=   1  ELEC=   3--------------------------------
 vlocal data are put in sender_buffer, size(M): = 2
 vlocal data are exchanged, received size(M): = 3

K-S equation was solved by genelpa2

eigenvalues were copied to ekb
              cal_dk_gamma_from_2D, NSPIN = 1
 number of non-zero elements in sender_buffer = 493993
                              sender_size = 493993
                       last sender_buffer = 0.0348334061029
 number of non-zero elements in receiver_buffer = 389374
                            receiver_size = 389376
                     last receiver_buffer = 0.00106660407353

 Density error is 0.00521043643324

 LCAO ALGORITHM --------------- ION=   1  ELEC=   4--------------------------------
 vlocal data are put in sender_buffer, size(M): = 2
 vlocal data are exchanged, received size(M): = 3

K-S equation was solved by genelpa2

eigenvalues were copied to ekb
              cal_dk_gamma_from_2D, NSPIN = 1
 number of non-zero elements in sender_buffer = 493993
                              sender_size = 493993
                       last sender_buffer = 0.0349655200111
 number of non-zero elements in receiver_buffer = 389376
                            receiver_size = 389376
                     last receiver_buffer = 0.001064497542

 Density error is 0.000384810747834

 LCAO ALGORITHM --------------- ION=   1  ELEC=   5--------------------------------
 vlocal data are put in sender_buffer, size(M): = 2
 vlocal data are exchanged, received size(M): = 3

K-S equation was solved by genelpa2

eigenvalues were copied to ekb
              cal_dk_gamma_from_2D, NSPIN = 1
 number of non-zero elements in sender_buffer = 493993
                              sender_size = 493993
                       last sender_buffer = 0.0349697307832
 number of non-zero elements in receiver_buffer = 389374
                            receiver_size = 389376
                     last receiver_buffer = 0.00106438882429

 Density error is 5.12257110362e-05

 LCAO ALGORITHM --------------- ION=   1  ELEC=   6--------------------------------
 vlocal data are put in sender_buffer, size(M): = 2
 vlocal data are exchanged, received size(M): = 3

K-S equation was solved by genelpa2

eigenvalues were copied to ekb
              cal_dk_gamma_from_2D, NSPIN = 1
 number of non-zero elements in sender_buffer = 493993
                              sender_size = 493993
                       last sender_buffer = 0.0349691657443
 number of non-zero elements in receiver_buffer = 389376
                            receiver_size = 389376
                     last receiver_buffer = 0.00106440166265

 Density error is 9.70819655597e-07

 charge density convergence is achieved
 final etot is -6162.49643297 eV

 ><><><><><><><><><><><><><><><><><><><><><><

    TOTAL-FORCE (eV/Angstrom)

 ><><><><><><><><><><><><><><><><><><><><><><

     atom              x              y              z
      Sn1              0              0              0
      Sn2              0              0              0
      Sn3              0              0              0
      Sn4              0              0              0
      Sn5 -2.8846192e-05 +2.8846219e-05 -2.8846197e-05
      Sn6 +2.8846211e-05 +2.8846222e-05 +2.8846214e-05
      Sn7 +2.8846212e-05 -2.8846192e-05   -2.88462e-05
      Sn8 -2.8846192e-05 -2.8846193e-05 +2.8846215e-05
      Sn9              0              0              0
     Sn10              0              0              0
     Sn11              0              0              0
     Sn12              0              0              0
     Sn13 -2.8846203e-05  +2.884622e-05   -2.88462e-05
     Sn14 +2.8846185e-05 +2.8846221e-05 +2.8846214e-05
     Sn15 +2.8846184e-05 -2.8846192e-05 -2.8846199e-05
     Sn16 -2.8846203e-05 -2.8846194e-05 +2.8846214e-05
     Sn17              0              0              0
     Sn18              0              0              0
     Sn19              0              0              0
     Sn20              0              0              0
     Sn21 -2.8846193e-05 +2.8846176e-05 -2.8846196e-05
     Sn22 +2.8846211e-05 +2.8846174e-05 +2.8846216e-05
     Sn23 +2.8846212e-05 -2.8846203e-05 -2.8846196e-05
     Sn24 -2.8846192e-05 -2.8846202e-05 +2.8846214e-05
     Sn25              0              0              0
     Sn26              0              0              0
     Sn27              0              0              0
     Sn28              0              0              0
     Sn29 -2.8846202e-05 +2.8846175e-05 -2.8846197e-05
     Sn30 +2.8846184e-05 +2.8846174e-05 +2.8846214e-05
     Sn31 +2.8846183e-05 -2.8846203e-05 -2.8846196e-05
     Sn32 -2.8846203e-05 -2.8846201e-05 +2.8846214e-05
     Sn33              0              0              0
     Sn34              0              0              0
     Sn35              0              0              0
     Sn36              0              0              0
     Sn37 -2.8846191e-05 +2.8846219e-05 -2.8846197e-05
     Sn38 +2.8846213e-05 +2.8846218e-05 +2.8846181e-05
     Sn39 +2.8846211e-05 -2.8846193e-05 -2.8846195e-05
     Sn40 -2.8846192e-05 -2.8846191e-05 +2.8846181e-05
     Sn41              0              0              0
     Sn42              0              0              0
     Sn43              0              0              0
     Sn44              0              0              0
     Sn45 -2.8846204e-05  +2.884622e-05 -2.8846195e-05
     Sn46 +2.8846182e-05 +2.8846218e-05 +2.8846182e-05
     Sn47 +2.8846184e-05 -2.8846192e-05 -2.8846196e-05
     Sn48 -2.8846204e-05 -2.8846191e-05 +2.8846182e-05
     Sn49              0              0              0
     Sn50              0              0              0
     Sn51              0              0              0
     Sn52              0              0              0
     Sn53 -2.8846191e-05 +2.8846176e-05   -2.88462e-05
     Sn54 +2.8846213e-05 +2.8846177e-05  +2.884618e-05
     Sn55 +2.8846212e-05 -2.8846202e-05 -2.8846199e-05
     Sn56 -2.8846191e-05 -2.8846204e-05 +2.8846181e-05
     Sn57              0              0              0
     Sn58              0              0              0
     Sn59              0              0              0
     Sn60              0              0              0
     Sn61 -2.8846204e-05 +2.8846175e-05 -2.8846198e-05
     Sn62 +2.8846182e-05 +2.8846177e-05 +2.8846182e-05
     Sn63 +2.8846183e-05 -2.8846202e-05 -2.8846199e-05
     Sn64 -2.8846203e-05 -2.8846204e-05 +2.8846181e-05


 ------------------------------------------------------------------------------------------------
 Energy              Potential           Kinetic             Temperature         
 -226.0566           -226.46749          0.41088955          1373                
 ------------------------------------------------------------------------------------------------



 -------------------------------------------
 STEP OF MOLECULAR DYNAMICS : 1
 -------------------------------------------
 searching radius is (Bohr))              = 16.01
 searching radius unit is (Bohr))         = 23.4538
 enter setAlltoallvParameter, nblk        = 32
checkpoint 2
 pnum                                     = 0
 prow                                     = 0
 pcol                                     = 0
 nRow_in_proc                             = 320
 nCol_in_proc                             = 175
 pnum                                     = 1
 prow                                     = 0
 pcol                                     = 1
 nRow_in_proc                             = 320
 nCol_in_proc                             = 162
 pnum                                     = 2
 prow                                     = 0
 pcol                                     = 2
 nRow_in_proc                             = 320
 nCol_in_proc                             = 145
 pnum                                     = 3
 prow                                     = 0
 pcol                                     = 3
 nRow_in_proc                             = 320
 nCol_in_proc                             = 142
 pnum                                     = 4
 prow                                     = 1
 pcol                                     = 0
 nRow_in_proc                             = 304
 nCol_in_proc                             = 175
 pnum                                     = 5
 prow                                     = 1
 pcol                                     = 1
 nRow_in_proc                             = 304
 nCol_in_proc                             = 162
 pnum                                     = 6
 prow                                     = 1
 pcol                                     = 2
 nRow_in_proc                             = 304
 nCol_in_proc                             = 145
 pnum                                     = 7
 prow                                     = 1
 pcol                                     = 3
 nRow_in_proc                             = 304
 nCol_in_proc                             = 142
receiver_size is 389376 ; receiver_size of each process is:
56000 51840 46400 45440 53200 49248 44080 43168 
sender_size is 493993 ; sender_size of each process is:
56000 58450 76171 71198 67776 67070 48032 49296 
 gamma_only_local                         = 1

 LCAO ALGORITHM --------------- ION=2     ELEC=1   --------------------------------

vlocal exchange index is built
 buffer size(M):                          = 6
 buffer index size(M):                    = 6
 vlocal data are put in sender_buffer, size(M): = 2
 vlocal data are exchanged, received size(M): = 3

K-S equation was solved by genelpa2

eigenvalues were copied to ekb
 cal_dk_gamma_from_2D, NSPIN              = 1
 number of non-zero elements in sender_buffer = 493993
 sender_size                              = 493993
 last sender_buffer                       = 0.0349355
 number of non-zero elements in receiver_buffer = 389376
 receiver_size                            = 389376
 last receiver_buffer                     = 0.00106312

 Density error is 0.00102152307363

 LCAO ALGORITHM --------------- ION=2     ELEC=2   --------------------------------
 vlocal data are put in sender_buffer, size(M): = 2
 vlocal data are exchanged, received size(M): = 3

K-S equation was solved by genelpa2

eigenvalues were copied to ekb
 cal_dk_gamma_from_2D, NSPIN              = 1
 number of non-zero elements in sender_buffer = 493993
 sender_size                              = 493993
 last sender_buffer                       = 0.0349173627136
 number of non-zero elements in receiver_buffer = 389376
 receiver_size                            = 389376
 last receiver_buffer                     = 0.00106431226524

 Density error is 0.000567032466646

 LCAO ALGORITHM --------------- ION=2     ELEC=3   --------------------------------
 vlocal data are put in sender_buffer, size(M): = 2
 vlocal data are exchanged, received size(M): = 3

K-S equation was solved by genelpa2

eigenvalues were copied to ekb
 cal_dk_gamma_from_2D, NSPIN              = 1
 number of non-zero elements in sender_buffer = 493993
 sender_size                              = 493993
 last sender_buffer                       = 0.034906397677
 number of non-zero elements in receiver_buffer = 389376
 receiver_size                            = 389376
 last receiver_buffer                     = 0.00106229588655

 Density error is 0.000274700546995

 LCAO ALGORITHM --------------- ION=2     ELEC=4   --------------------------------
 vlocal data are put in sender_buffer, size(M): = 2
 vlocal data are exchanged, received size(M): = 3

K-S equation was solved by genelpa2

eigenvalues were copied to ekb
 cal_dk_gamma_from_2D, NSPIN              = 1
 number of non-zero elements in sender_buffer = 493993
 sender_size                              = 493993
 last sender_buffer                       = 0.0349236832528
 number of non-zero elements in receiver_buffer = 389376
 receiver_size                            = 389376
 last receiver_buffer                     = 0.00106354324747

 Density error is 8.59016669501e-05

 LCAO ALGORITHM --------------- ION=2     ELEC=5   --------------------------------
 vlocal data are put in sender_buffer, size(M): = 2
 vlocal data are exchanged, received size(M): = 3

K-S equation was solved by genelpa2

eigenvalues were copied to ekb
 cal_dk_gamma_from_2D, NSPIN              = 1
 number of non-zero elements in sender_buffer = 493993
 sender_size                              = 493993
 last sender_buffer                       = 0.0349073672311
 number of non-zero elements in receiver_buffer = 389376
 receiver_size                            = 389376
 last receiver_buffer                     = 0.00106358778771

 Density error is 5.9233570827e-05

 LCAO ALGORITHM --------------- ION=2     ELEC=6   --------------------------------
 vlocal data are put in sender_buffer, size(M): = 2
 vlocal data are exchanged, received size(M): = 3

K-S equation was solved by genelpa2

eigenvalues were copied to ekb
 cal_dk_gamma_from_2D, NSPIN              = 1
 number of non-zero elements in sender_buffer = 493993
 sender_size                              = 493993
 last sender_buffer                       = 0.0349157926222
 number of non-zero elements in receiver_buffer = 389376
 receiver_size                            = 389376
 last receiver_buffer                     = 0.00106346840271

 Density error is 1.45288190097e-05

 LCAO ALGORITHM --------------- ION=2     ELEC=7   --------------------------------
 vlocal data are put in sender_buffer, size(M): = 2
 vlocal data are exchanged, received size(M): = 3

K-S equation was solved by genelpa2

eigenvalues were copied to ekb
 cal_dk_gamma_from_2D, NSPIN              = 1
 number of non-zero elements in sender_buffer = 493993
 sender_size                              = 493993
 last sender_buffer                       = 0.034914697943
 number of non-zero elements in receiver_buffer = 389376
 receiver_size                            = 389376
 last receiver_buffer                     = 0.00106343797622

 Density error is 5.60260796776e-06

 charge density convergence is achieved
 final etot is -6162.48542942 eV

 ><><><><><><><><><><><><><><><><><><><><><><

    TOTAL-FORCE (eV/Angstrom)

 ><><><><><><><><><><><><><><><><><><><><><><

 atom    x              y              z              
 Sn1     -0.037470282   +0.037996857   +0.0068842873  
 Sn2     -0.035560997   -0.047046906   -0.00062948712 
 Sn3     +0.05879829    -0.044261884   +0.031735799   
 Sn4     -0.0082538761  -0.0035773081  -0.032190112   
 Sn5     +0.032023533   +0.0020665849  -0.070623441   
 Sn6     -0.045758384   +0.0094673888  -0.033121532   
 Sn7     +0.070710273   +0.025266772   +0.06097401    
 Sn8     +0.031360793   +0.051402869   -0.084408965   
 Sn9     +0.086954323   +0.02484707    +0.05627282    
 Sn10    +0.044716401   -0.083353353   +0.065651064   
 Sn11    +0.034274299   -0.03247444    +0.0018318116  
 Sn12    +0.029587836   +0.0060127177  -0.031424526   
 Sn13    +0.034930675   -0.016878421   -0.003141498   
 Sn14    -0.078676217   -0.00032497669 -0.04578239    
 Sn15    +0.0068752773  -0.059583577   +0.0074206145  
 Sn16    +0.0068066468  -0.028021623   -0.067609283   
 Sn17    +0.036405161   -0.045125924   +0.012434061   
 Sn18    +0.10248456    +0.015246052   -0.014649851   
 Sn19    -0.020553085   +0.030816004   +0.081833054   
 Sn20    +0.05127526    -0.0076992991  +0.053556301   
 Sn21    +0.058300449   -0.10313398    -0.016080695   
 Sn22    -0.043010019   +0.029670915   -0.00054749653 
 Sn23    -0.034541481   -0.0044322348  -0.030537181   
 Sn24    -0.0311319     -0.04363       +0.044887407   
 Sn25    -0.01507873    -0.05540382    -0.019012504   
 Sn26    -0.0062700583  +0.03846025    -0.018574436   
 Sn27    -0.0054712079  +0.030031251   +0.0052804365  
 Sn28    +0.041345996   +0.049934614   -0.032183135   
 Sn29    -0.077201229   +0.016478813   +0.092618835   
 Sn30    -0.030843145   +0.0014162317  +0.027844655   
 Sn31    -0.048942915   +0.011980796   -0.01914535    
 Sn32    -0.057484013   +0.01067647    -0.033467655   
 Sn33    -0.02236512    -0.014969186   -0.044881099   
 Sn34    -0.026971311   -0.040176735   +0.032550262   
 Sn35    -0.10058388    -0.05606906    +0.068201274   
 Sn36    -0.088693476   +0.016046325   -0.0044994066  
 Sn37    -0.0040568727  +0.067006155   -0.042361697   
 Sn38    +0.066712462   +0.027203756   +0.0020093026  
 Sn39    +0.036250818   +0.069177073   +0.0020901276  
 Sn40    +0.034845501   +0.027130731   -0.029347305   
 Sn41    +0.075923885   +0.044046794   -0.0014016618  
 Sn42    -0.029771263   -0.10634268    -0.037996367   
 Sn43    +0.0070844449  -0.013239061   -0.032998226   
 Sn44    -0.016138196   +0.03292574    +0.027030785   
 Sn45    +0.022539138   +0.046078253   +0.063318352   
 Sn46    -0.051345089   +0.024787262   -0.021947775   
 Sn47    +0.039375672   +0.041316822   +0.092861763   
 Sn48    -0.070543002   -0.010099769   -0.011513209   
 Sn49    +0.059594928   +0.038464483   -0.015134845   
 Sn50    -0.01885909    -0.047117926   -0.028892853   
 Sn51    -0.037601163   -0.076213104   +0.059644457   
 Sn52    -0.0043007883  +0.043166718   +0.056035939   
 Sn53    +0.013866521   +0.0070352481  +0.039733399   
 Sn54    -0.06223746    +0.010445184   -0.043345641   
 Sn55    +0.088950592   +0.10767879    -0.088760387   
 Sn56    +0.017074551   -0.10940737    +0.046268771   
 Sn57    -0.0987514     +0.047620428   -0.027963995   
 Sn58    +0.013038382   +0.066000325   -0.064846582   
 Sn59    +0.0069084068  +0.041619866   -0.011006742   
 Sn60    +0.083050142   -0.037971913   -0.034915241   
 Sn61    -0.042447643   +0.013693122   -0.023258477   
 Sn62    +0.0093152394  -0.010748374   +0.071461212   
 Sn63    -0.02327096    -0.05840788    +0.019465775   
 Sn64    -0.027196204   -0.007503922   -0.011695528   


 ------------------------------------------------------------------------------------------------
 Energy              Potential           Kinetic             Temperature         
 -226.0566           -226.46708          0.41048511          1371.6485           
 ------------------------------------------------------------------------------------------------



 -------------------------------------------
 STEP OF MOLECULAR DYNAMICS : 2
 -------------------------------------------
 searching radius is (Bohr))              = 16.01
 searching radius unit is (Bohr))         = 23.4538
 enter setAlltoallvParameter, nblk        = 32
checkpoint 2
 pnum                                     = 0
 prow                                     = 0
 pcol                                     = 0
 nRow_in_proc                             = 320
 nCol_in_proc                             = 175
 pnum                                     = 1
 prow                                     = 0
 pcol                                     = 1
 nRow_in_proc                             = 320
 nCol_in_proc                             = 162
 pnum                                     = 2
 prow                                     = 0
 pcol                                     = 2
 nRow_in_proc                             = 320
 nCol_in_proc                             = 145
 pnum                                     = 3
 prow                                     = 0
 pcol                                     = 3
 nRow_in_proc                             = 320
 nCol_in_proc                             = 142
 pnum                                     = 4
 prow                                     = 1
 pcol                                     = 0
 nRow_in_proc                             = 304
 nCol_in_proc                             = 175
 pnum                                     = 5
 prow                                     = 1
 pcol                                     = 1
 nRow_in_proc                             = 304
 nCol_in_proc                             = 162
 pnum                                     = 6
 prow                                     = 1
 pcol                                     = 2
 nRow_in_proc                             = 304
 nCol_in_proc                             = 145
 pnum                                     = 7
 prow                                     = 1
 pcol                                     = 3
 nRow_in_proc                             = 304
 nCol_in_proc                             = 142
receiver_size is 389376 ; receiver_size of each process is:
56000 51840 46400 45440 53200 49248 44080 43168 
sender_size is 493993 ; sender_size of each process is:
56000 58450 76171 71198 67776 67070 48032 49296 
 gamma_only_local                         = 1

 LCAO ALGORITHM --------------- ION=3     ELEC=1   --------------------------------

vlocal exchange index is built
 buffer size(M):                          = 6
 buffer index size(M):                    = 6
 vlocal data are put in sender_buffer, size(M): = 2
 vlocal data are exchanged, received size(M): = 3

K-S equation was solved by genelpa2

eigenvalues were copied to ekb
 cal_dk_gamma_from_2D, NSPIN              = 1
 number of non-zero elements in sender_buffer = 493993
 sender_size                              = 493993
 last sender_buffer                       = 0.0348803
 number of non-zero elements in receiver_buffer = 389376
 receiver_size                            = 389376
 last receiver_buffer                     = 0.0010625

 Density error is 0.00102048684127

 LCAO ALGORITHM --------------- ION=3     ELEC=2   --------------------------------
 vlocal data are put in sender_buffer, size(M): = 2
 vlocal data are exchanged, received size(M): = 3

K-S equation was solved by genelpa2

eigenvalues were copied to ekb
 cal_dk_gamma_from_2D, NSPIN              = 1
 number of non-zero elements in sender_buffer = 493993
 sender_size                              = 493993
 last sender_buffer                       = 0.0348611523339
 number of non-zero elements in receiver_buffer = 389376
 receiver_size                            = 389376
 last receiver_buffer                     = 0.00106355048105

 Density error is 0.000567415454169

 LCAO ALGORITHM --------------- ION=3     ELEC=3   --------------------------------
 vlocal data are put in sender_buffer, size(M): = 2
 vlocal data are exchanged, received size(M): = 3

K-S equation was solved by genelpa2

eigenvalues were copied to ekb
 cal_dk_gamma_from_2D, NSPIN              = 1
 number of non-zero elements in sender_buffer = 493993
 sender_size                              = 493993
 last sender_buffer                       = 0.0348554594025
 number of non-zero elements in receiver_buffer = 389376
 receiver_size                            = 389376
 last receiver_buffer                     = 0.00106165038108

 Density error is 0.000273304365918

 LCAO ALGORITHM --------------- ION=3     ELEC=4   --------------------------------
 vlocal data are put in sender_buffer, size(M): = 2
 vlocal data are exchanged, received size(M): = 3

K-S equation was solved by genelpa2

eigenvalues were copied to ekb
 cal_dk_gamma_from_2D, NSPIN              = 1
 number of non-zero elements in sender_buffer = 493993
 sender_size                              = 493993
 last sender_buffer                       = 0.0348643100126
 number of non-zero elements in receiver_buffer = 389376
 receiver_size                            = 389376
 last receiver_buffer                     = 0.00106282051475

 Density error is 6.88671005906e-05

 LCAO ALGORITHM --------------- ION=3     ELEC=5   --------------------------------
 vlocal data are put in sender_buffer, size(M): = 2
 vlocal data are exchanged, received size(M): = 3

K-S equation was solved by genelpa2

eigenvalues were copied to ekb
 cal_dk_gamma_from_2D, NSPIN              = 1
 number of non-zero elements in sender_buffer = 493993
 sender_size                              = 493993
 last sender_buffer                       = 0.0348555198219
 number of non-zero elements in receiver_buffer = 389376
 receiver_size                            = 389376
 last receiver_buffer                     = 0.00106285444686

 Density error is 3.66822975009e-05

 LCAO ALGORITHM --------------- ION=3     ELEC=6   --------------------------------
 vlocal data are put in sender_buffer, size(M): = 2
 vlocal data are exchanged, received size(M): = 3

K-S equation was solved by genelpa2

eigenvalues were copied to ekb
 cal_dk_gamma_from_2D, NSPIN              = 1
 number of non-zero elements in sender_buffer = 493993
 sender_size                              = 493993
 last sender_buffer                       = 0.0348617405972
 number of non-zero elements in receiver_buffer = 389376
 receiver_size                            = 389376
 last receiver_buffer                     = 0.00106272728303

 Density error is 1.79117621616e-05

 LCAO ALGORITHM --------------- ION=3     ELEC=7   --------------------------------
 vlocal data are put in sender_buffer, size(M): = 2
 vlocal data are exchanged, received size(M): = 3

K-S equation was solved by genelpa2

eigenvalues were copied to ekb
 cal_dk_gamma_from_2D, NSPIN              = 1
 number of non-zero elements in sender_buffer = 493993
 sender_size                              = 493993
 last sender_buffer                       = 0.0348596220197
 number of non-zero elements in receiver_buffer = 389376
 receiver_size                            = 389376
 last receiver_buffer                     = 0.00106272093635

 Density error is 5.96529865691e-06

 charge density convergence is achieved
 final etot is -6162.45253059 eV

 ><><><><><><><><><><><><><><><><><><><><><><

    TOTAL-FORCE (eV/Angstrom)

 ><><><><><><><><><><><><><><><><><><><><><><

 atom    x              y              z              
 Sn1     -0.075586479   +0.075914363   +0.013991114   
 Sn2     -0.071289489   -0.095163966   -0.0020512555  
 Sn3     +0.11845467    -0.088681803   +0.064459415   
 Sn4     -0.015629738   -0.0070045408  -0.064297213   
 Sn5     +0.06375541    +0.0029032279  -0.14256966    
 Sn6     -0.091758788   +0.019671019   -0.06645357    
 Sn7     +0.14148682    +0.051823304   +0.12263307    
 Sn8     +0.061670344   +0.10193079    -0.17028339    
 Sn9     +0.17466165    +0.048861972   +0.11293774    
 Sn10    +0.091449685   -0.16804385    +0.13118578    
 Sn11    +0.068082384   -0.065888357   +0.0037824054  
 Sn12    +0.05763368    +0.011199639   -0.062620826   
 Sn13    +0.069953833   -0.034368449   -0.0062220685  
 Sn14    -0.15705221    +0.00042872731 -0.091640786   
 Sn15    +0.013129955   -0.11863557    +0.014175334   
 Sn16    +0.01409202    -0.056654869   -0.13572005    
 Sn17    +0.073240614   -0.090142147   +0.025155286   
 Sn18    +0.20466897    +0.031836486   -0.029774003   
 Sn19    -0.041483927   +0.062145829   +0.16436134    
 Sn20    +0.10299131    -0.016871736   +0.10731825    
 Sn21    +0.11740906    -0.20497605    -0.033731522   
 Sn22    -0.086055469   +0.059025461   -0.0020200859  
 Sn23    -0.068869588   -0.0083846192  -0.060542992   
 Sn24    -0.061799142   -0.086150966   +0.090504381   
 Sn25    -0.030612107   -0.11124754    -0.038510249   
 Sn26    -0.011555516   +0.076681861   -0.035690205   
 Sn27    -0.011688272   +0.061214627   +0.011340216   
 Sn28    +0.083118972   +0.10087253    -0.064296182   
 Sn29    -0.15409442    +0.030867359   +0.18500708    
 Sn30    -0.061677087   +0.0028191389  +0.056756694   
 Sn31    -0.098071191   +0.023807608   -0.038898177   
 Sn32    -0.11552383    +0.022371414   -0.066948763   
 Sn33    -0.045668095   -0.03050741    -0.089912714   
 Sn34    -0.05402415    -0.080197098   +0.064920173   
 Sn35    -0.19819665    -0.10813088    +0.13300573    
 Sn36    -0.17758056    +0.032514497   -0.0087240046  
 Sn37    -0.0086094656  +0.13548206    -0.08371495    
 Sn38    +0.13284632    +0.054664707   +0.0043885515  
 Sn39    +0.071807113   +0.13742201    +0.0047016397  
 Sn40    +0.069017112   +0.055101787   -0.05786336    
 Sn41    +0.15292767    +0.086873495   -0.0054084479  
 Sn42    -0.060843634   -0.21325873    -0.075941704   
 Sn43    +0.014702644   -0.026304584   -0.065961935   
 Sn44    -0.031712803   +0.06543713    +0.054753759   
 Sn45    +0.045075048   +0.091986616   +0.12606723    
 Sn46    -0.100705      +0.04969983    -0.043536668   
 Sn47    +0.080135875   +0.08360331    +0.18694011    
 Sn48    -0.14121528    -0.020265181   -0.022538739   
 Sn49    +0.11907946    +0.077080924   -0.030766524   
 Sn50    -0.038373833   -0.094882458   -0.05867651    
 Sn51    -0.073490103   -0.1517273     +0.11770091    
 Sn52    -0.009210693   +0.085942434   +0.11259325    
 Sn53    +0.027239338   +0.013003834   +0.079481431   
 Sn54    -0.12409094    +0.021739562   -0.086495599   
 Sn55    +0.17309567    +0.21249277    -0.1739677     
 Sn56    +0.031992677   -0.21962245    +0.091229603   
 Sn57    -0.1962397     +0.094945347   -0.053756836   
 Sn58    +0.028038983   +0.13080152    -0.13005869    
 Sn59    +0.014040395   +0.082254563   -0.022019521   
 Sn60    +0.16428878    -0.074470236   -0.068583131   
 Sn61    -0.084281523   +0.027826157   -0.047078069   
 Sn62    +0.017695296   -0.021167827   +0.14163558    
 Sn63    -0.046342468   -0.11593302    +0.039915548   
 Sn64    -0.054449597   -0.014566272   -0.023665517   


 ------------------------------------------------------------------------------------------------
 Energy              Potential           Kinetic             Temperature         
 -226.0566           -226.46587          0.40927576          1367.6075           
 ------------------------------------------------------------------------------------------------



 -------------------------------------------
 STEP OF MOLECULAR DYNAMICS : 3
 -------------------------------------------
 searching radius is (Bohr))              = 16.01
 searching radius unit is (Bohr))         = 23.4538
 enter setAlltoallvParameter, nblk        = 32
checkpoint 2
 pnum                                     = 0
 prow                                     = 0
 pcol                                     = 0
 nRow_in_proc                             = 320
 nCol_in_proc                             = 175
 pnum                                     = 1
 prow                                     = 0
 pcol                                     = 1
 nRow_in_proc                             = 320
 nCol_in_proc                             = 162
 pnum                                     = 2
 prow                                     = 0
 pcol                                     = 2
 nRow_in_proc                             = 320
 nCol_in_proc                             = 145
 pnum                                     = 3
 prow                                     = 0
 pcol                                     = 3
 nRow_in_proc                             = 320
 nCol_in_proc                             = 142
 pnum                                     = 4
 prow                                     = 1
 pcol                                     = 0
 nRow_in_proc                             = 304
 nCol_in_proc                             = 175
 pnum                                     = 5
 prow                                     = 1
 pcol                                     = 1
 nRow_in_proc                             = 304
 nCol_in_proc                             = 162
 pnum                                     = 6
 prow                                     = 1
 pcol                                     = 2
 nRow_in_proc                             = 304
 nCol_in_proc                             = 145
 pnum                                     = 7
 prow                                     = 1
 pcol                                     = 3
 nRow_in_proc                             = 304
 nCol_in_proc                             = 142
receiver_size is 389376 ; receiver_size of each process is:
56000 51840 46400 45440 53200 49248 44080 43168 
sender_size is 493993 ; sender_size of each process is:
56000 58450 76171 71198 67776 67070 48032 49296 
 gamma_only_local                         = 1

 LCAO ALGORITHM --------------- ION=4     ELEC=1   --------------------------------

vlocal exchange index is built
 buffer size(M):                          = 6
 buffer index size(M):                    = 6
 vlocal data are put in sender_buffer, size(M): = 2
 vlocal data are exchanged, received size(M): = 3

K-S equation was solved by genelpa2

eigenvalues were copied to ekb
 cal_dk_gamma_from_2D, NSPIN              = 1
 number of non-zero elements in sender_buffer = 493993
 sender_size                              = 493993
 last sender_buffer                       = 0.0348253
 number of non-zero elements in receiver_buffer = 389376
 receiver_size                            = 389376
 last receiver_buffer                     = 0.00106201

 Density error is 0.0010180937585

 LCAO ALGORITHM --------------- ION=4     ELEC=2   --------------------------------
 vlocal data are put in sender_buffer, size(M): = 2
 vlocal data are exchanged, received size(M): = 3

K-S equation was solved by genelpa2

eigenvalues were copied to ekb
 cal_dk_gamma_from_2D, NSPIN              = 1
 number of non-zero elements in sender_buffer = 493993
 sender_size                              = 493993
 last sender_buffer                       = 0.0348041351992
 number of non-zero elements in receiver_buffer = 389376
 receiver_size                            = 389376
 last receiver_buffer                     = 0.0010630551398

 Density error is 0.000567051866739

 LCAO ALGORITHM --------------- ION=4     ELEC=3   --------------------------------
 vlocal data are put in sender_buffer, size(M): = 2
 vlocal data are exchanged, received size(M): = 3

K-S equation was solved by genelpa2

eigenvalues were copied to ekb
 cal_dk_gamma_from_2D, NSPIN              = 1
 number of non-zero elements in sender_buffer = 493993
 sender_size                              = 493993
 last sender_buffer                       = 0.0348054470495
 number of non-zero elements in receiver_buffer = 389376
 receiver_size                            = 389376
 last receiver_buffer                     = 0.00106110527184

 Density error is 0.000270208796671

 LCAO ALGORITHM --------------- ION=4     ELEC=4   --------------------------------
 vlocal data are put in sender_buffer, size(M): = 2
 vlocal data are exchanged, received size(M): = 3

K-S equation was solved by genelpa2

eigenvalues were copied to ekb
 cal_dk_gamma_from_2D, NSPIN              = 1
 number of non-zero elements in sender_buffer = 493993
 sender_size                              = 493993
 last sender_buffer                       = 0.0348037461269
 number of non-zero elements in receiver_buffer = 389376
 receiver_size                            = 389376
 last receiver_buffer                     = 0.0010623631883

 Density error is 6.72997867024e-05

 LCAO ALGORITHM --------------- ION=4     ELEC=5   --------------------------------
 vlocal data are put in sender_buffer, size(M): = 2
 vlocal data are exchanged, received size(M): = 3

K-S equation was solved by genelpa2

eigenvalues were copied to ekb
 cal_dk_gamma_from_2D, NSPIN              = 1
 number of non-zero elements in sender_buffer = 493993
 sender_size                              = 493993
 last sender_buffer                       = 0.0348065061105
 number of non-zero elements in receiver_buffer = 389376
 receiver_size                            = 389376
 last receiver_buffer                     = 0.00106229109279

 Density error is 2.61559637458e-05

 LCAO ALGORITHM --------------- ION=4     ELEC=6   --------------------------------
 vlocal data are put in sender_buffer, size(M): = 2
 vlocal data are exchanged, received size(M): = 3

K-S equation was solved by genelpa2

eigenvalues were copied to ekb
 cal_dk_gamma_from_2D, NSPIN              = 1
 number of non-zero elements in sender_buffer = 493993
 sender_size                              = 493993
 last sender_buffer                       = 0.0348030056206
 number of non-zero elements in receiver_buffer = 389376
 receiver_size                            = 389376
 last receiver_buffer                     = 0.00106223576335

 Density error is 1.64635791853e-05

 LCAO ALGORITHM --------------- ION=4     ELEC=7   --------------------------------
 vlocal data are put in sender_buffer, size(M): = 2
 vlocal data are exchanged, received size(M): = 3

K-S equation was solved by genelpa2

eigenvalues were copied to ekb
 cal_dk_gamma_from_2D, NSPIN              = 1
 number of non-zero elements in sender_buffer = 493993
 sender_size                              = 493993
 last sender_buffer                       = 0.0348054534413
 number of non-zero elements in receiver_buffer = 389376
 receiver_size                            = 389376
 last receiver_buffer                     = 0.00106220737647

 Density error is 7.16203007625e-06

 charge density convergence is achieved
 final etot is -6162.39799719 eV

 ><><><><><><><><><><><><><><><><><><><><><><

    TOTAL-FORCE (eV/Angstrom)

 ><><><><><><><><><><><><><><><><><><><><><><

 atom    x              y              z              
 Sn1     -0.11017308    +0.1155536     +0.022049077   
 Sn2     -0.10403758    -0.14178348    -0.0046083918  
 Sn3     +0.17511961    -0.13153063    +0.098040324   
 Sn4     -0.026089884   -0.0084304641  -0.095886985   
 Sn5     +0.090541406   +0.0056957229  -0.21503275    
 Sn6     -0.13825416    +0.033376363   -0.09968785    
 Sn7     +0.21219196    +0.079659174   +0.18376145    
 Sn8     +0.085948082   +0.15233755    -0.25675342    
 Sn9     +0.2588203     +0.07286131    +0.16951279    
 Sn10    +0.13698253    -0.25147668    +0.1974912     
 Sn11    +0.10509315    -0.097598671   +0.0060008198  
 Sn12    +0.088045856   +0.018406626   -0.092409257   
 Sn13    +0.10959097    -0.049004908   -0.010027755   
 Sn14    -0.2346629     +0.0054880752  -0.1366286     
 Sn15    +0.018839574   -0.17758821    +0.019869354   
 Sn16    +0.026708024   -0.085487862   -0.20358238    
 Sn17    +0.11353354    -0.13685689    +0.039491105   
 Sn18    +0.31029778    +0.047233024   -0.045822466   
 Sn19    -0.066547333   +0.092267788   +0.24692998    
 Sn20    +0.15215427    -0.029299419   +0.16199282    
 Sn21    +0.17202763    -0.30846494    -0.054200783   
 Sn22    -0.12893831    +0.08526272    -0.003944301   
 Sn23    -0.10276354    -0.011910418   -0.090809684   
 Sn24    -0.097317991   -0.12839133    +0.13622037    
 Sn25    -0.04964204    -0.1682711     -0.057778336   
 Sn26    -0.01981842    +0.11212307    -0.052501053   
 Sn27    -0.014882866   +0.090944152   +0.017661544   
 Sn28    +0.12818378    +0.14988069    -0.096197188   
 Sn29    -0.22535975    +0.039783085   +0.27606306    
 Sn30    -0.092570956   +0.0010374001  +0.086115163   
 Sn31    -0.14732951    +0.035929772   -0.059357193   
 Sn32    -0.16867062    +0.034582589   -0.10017581    
 Sn33    -0.066002794   -0.044562927   -0.13574924    
 Sn34    -0.077309293   -0.11819352    +0.097422433   
 Sn35    -0.29540506    -0.1542134     +0.19452304    
 Sn36    -0.26907086    +0.050808851   -0.01308133    
 Sn37    -0.018915295   +0.20720514    -0.1247451     
 Sn38    +0.19949349    +0.084828875   +0.0069427434  
 Sn39    +0.10657583    +0.20444729    +0.0088651069  
 Sn40    +0.098170876   +0.082634099   -0.086191204   
 Sn41    +0.22699716    +0.13149681    -0.011585222   
 Sn42    -0.096962555   -0.31918864    -0.11479633    
 Sn43    +0.025435613   -0.037684456   -0.098980646   
 Sn44    -0.044146049   +0.099576694   +0.081993222   
 Sn45    +0.072800645   +0.14057472    +0.18893545    
 Sn46    -0.14915951    +0.077601048   -0.065557663   
 Sn47    +0.12239561    +0.12771136    +0.28244664    
 Sn48    -0.20765912    -0.030256737   -0.033725911   
 Sn49    +0.18143921    +0.11381264    -0.048245381   
 Sn50    -0.055246      -0.14502814    -0.088879048   
 Sn51    -0.11071146    -0.22852215    +0.17462645    
 Sn52    -0.018349473   +0.12686555    +0.16877577    
 Sn53    +0.035936031   +0.016054364   +0.12043661    
 Sn54    -0.18568977    +0.031418389   -0.12980679    
 Sn55    +0.25334444    +0.31453029    -0.25479876    
 Sn56    +0.04002461    -0.32926279    +0.13546669    
 Sn57    -0.29532935    +0.13886742    -0.078055933   
 Sn58    +0.041594628   +0.19285954    -0.19439531    
 Sn59    +0.024433929   +0.12034413    -0.032485428   
 Sn60    +0.24728456    -0.11153842    -0.10102328    
 Sn61    -0.12134356    +0.039495285   -0.070458084   
 Sn62    +0.025367987   -0.034095116   +0.21100647    
 Sn63    -0.070000557   -0.17344374    +0.061350024   
 Sn64    -0.077013463   -0.021470167   -0.036024819   


 ------------------------------------------------------------------------------------------------
 Energy              Potential           Kinetic             Temperature         
 -226.05659          -226.46387          0.40727585          1360.9247           
 ------------------------------------------------------------------------------------------------



 -------------------------------------------
 STEP OF MOLECULAR DYNAMICS : 4
 -------------------------------------------
 searching radius is (Bohr))              = 16.01
 searching radius unit is (Bohr))         = 23.4538
 enter setAlltoallvParameter, nblk        = 32
checkpoint 2
 pnum                                     = 0
 prow                                     = 0
 pcol                                     = 0
 nRow_in_proc                             = 320
 nCol_in_proc                             = 175
 pnum                                     = 1
 prow                                     = 0
 pcol                                     = 1
 nRow_in_proc                             = 320
 nCol_in_proc                             = 162
 pnum                                     = 2
 prow                                     = 0
 pcol                                     = 2
 nRow_in_proc                             = 320
 nCol_in_proc                             = 145
 pnum                                     = 3
 prow                                     = 0
 pcol                                     = 3
 nRow_in_proc                             = 320
 nCol_in_proc                             = 142
 pnum                                     = 4
 prow                                     = 1
 pcol                                     = 0
 nRow_in_proc                             = 304
 nCol_in_proc                             = 175
 pnum                                     = 5
 prow                                     = 1
 pcol                                     = 1
 nRow_in_proc                             = 304
 nCol_in_proc                             = 162
 pnum                                     = 6
 prow                                     = 1
 pcol                                     = 2
 nRow_in_proc                             = 304
 nCol_in_proc                             = 145
 pnum                                     = 7
 prow                                     = 1
 pcol                                     = 3
 nRow_in_proc                             = 304
 nCol_in_proc                             = 142
receiver_size is 389376 ; receiver_size of each process is:
56000 51840 46400 45440 53200 49248 44080 43168 
sender_size is 493993 ; sender_size of each process is:
56000 58450 76171 71198 67776 67070 48032 49296 
 gamma_only_local                         = 1

 LCAO ALGORITHM --------------- ION=5     ELEC=1   --------------------------------

vlocal exchange index is built
 buffer size(M):                          = 6
 buffer index size(M):                    = 6
 vlocal data are put in sender_buffer, size(M): = 2
 vlocal data are exchanged, received size(M): = 3

K-S equation was solved by genelpa2

eigenvalues were copied to ekb
 cal_dk_gamma_from_2D, NSPIN              = 1
 number of non-zero elements in sender_buffer = 493993
 sender_size                              = 493993
 last sender_buffer                       = 0.0347637
 number of non-zero elements in receiver_buffer = 389376
 receiver_size                            = 389376
 last receiver_buffer                     = 0.00106177

 Density error is 0.00101832271713

 LCAO ALGORITHM --------------- ION=5     ELEC=2   --------------------------------
 vlocal data are put in sender_buffer, size(M): = 2
 vlocal data are exchanged, received size(M): = 3

K-S equation was solved by genelpa2

eigenvalues were copied to ekb
 cal_dk_gamma_from_2D, NSPIN              = 1
 number of non-zero elements in sender_buffer = 493993
 sender_size                              = 493993
 last sender_buffer                       = 0.0347568675235
 number of non-zero elements in receiver_buffer = 389376
 receiver_size                            = 389376
 last receiver_buffer                     = 0.00106267386873

 Density error is 0.000565626013019

 LCAO ALGORITHM --------------- ION=5     ELEC=3   --------------------------------
 vlocal data are put in sender_buffer, size(M): = 2
 vlocal data are exchanged, received size(M): = 3

K-S equation was solved by genelpa2

eigenvalues were copied to ekb
 cal_dk_gamma_from_2D, NSPIN              = 1
 number of non-zero elements in sender_buffer = 493993
 sender_size                              = 493993
 last sender_buffer                       = 0.0347244030437
 number of non-zero elements in receiver_buffer = 389376
 receiver_size                            = 389376
 last receiver_buffer                     = 0.00106108094002

 Density error is 0.000334939138887

 LCAO ALGORITHM --------------- ION=5     ELEC=4   --------------------------------
 vlocal data are put in sender_buffer, size(M): = 2
 vlocal data are exchanged, received size(M): = 3

K-S equation was solved by genelpa2

eigenvalues were copied to ekb
 cal_dk_gamma_from_2D, NSPIN              = 1
 number of non-zero elements in sender_buffer = 493993
 sender_size                              = 493993
 last sender_buffer                       = 0.0347686382866
 number of non-zero elements in receiver_buffer = 389376
 receiver_size                            = 389376
 last receiver_buffer                     = 0.00106166898283

 Density error is 0.000159280201005

 LCAO ALGORITHM --------------- ION=5     ELEC=5   --------------------------------
 vlocal data are put in sender_buffer, size(M): = 2
 vlocal data are exchanged, received size(M): = 3

K-S equation was solved by genelpa2

eigenvalues were copied to ekb
 cal_dk_gamma_from_2D, NSPIN              = 1
 number of non-zero elements in sender_buffer = 493993
 sender_size                              = 493993
 last sender_buffer                       = 0.034743359485
 number of non-zero elements in receiver_buffer = 389376
 receiver_size                            = 389376
 last receiver_buffer                     = 0.00106213138549

 Density error is 6.01888465319e-05

 LCAO ALGORITHM --------------- ION=5     ELEC=6   --------------------------------
 vlocal data are put in sender_buffer, size(M): = 2
 vlocal data are exchanged, received size(M): = 3

K-S equation was solved by genelpa2

eigenvalues were copied to ekb
 cal_dk_gamma_from_2D, NSPIN              = 1
 number of non-zero elements in sender_buffer = 493993
 sender_size                              = 493993
 last sender_buffer                       = 0.0347496237858
 number of non-zero elements in receiver_buffer = 389376
 receiver_size                            = 389376
 last receiver_buffer                     = 0.00106194429206

 Density error is 1.24115399731e-05

 LCAO ALGORITHM --------------- ION=5     ELEC=7   --------------------------------
 vlocal data are put in sender_buffer, size(M): = 2
 vlocal data are exchanged, received size(M): = 3

K-S equation was solved by genelpa2

eigenvalues were copied to ekb
 cal_dk_gamma_from_2D, NSPIN              = 1
 number of non-zero elements in sender_buffer = 493993
 sender_size                              = 493993
 last sender_buffer                       = 0.0347494273413
 number of non-zero elements in receiver_buffer = 389376
 receiver_size                            = 389376
 last receiver_buffer                     = 0.00106190147014

 Density error is 5.50196893927e-06

 charge density convergence is achieved
 final etot is -6162.32221799 eV

 ><><><><><><><><><><><><><><><><><><><><><><

    TOTAL-FORCE (eV/Angstrom)

 ><><><><><><><><><><><><><><><><><><><><><><

 atom    x              y              z              
 Sn1     -0.14900778    +0.15241266    +0.029237304   
 Sn2     -0.14187748    -0.19137295    -0.0079546061  
 Sn3     +0.23612502    -0.17760906    +0.1329833     
 Sn4     -0.032323063   -0.012548364   -0.1290042     
 Sn5     +0.12349015    +0.0039961382  -0.28572052    
 Sn6     -0.18562387    +0.04393442    -0.13383589    
 Sn7     +0.28240704    +0.10888473    +0.24592323    
 Sn8     +0.11516303    +0.2027552     -0.34440941    
 Sn9     +0.34718213    +0.091894795   +0.22383379    
 Sn10    +0.18945089    -0.33797419    +0.26536513    
 Sn11    +0.13777019    -0.13201482    +0.0091213125  
 Sn12    +0.11351453    +0.023118973   -0.12239818    
 Sn13    +0.14257047    -0.067318399   -0.013023424   
 Sn14    -0.31086483    +0.0083310281  -0.18140007    
 Sn15    +0.024226594   -0.23646567    +0.026272265   
 Sn16    +0.033612235   -0.11452666    -0.27202123    
 Sn17    +0.14905039    -0.18069233    +0.053691052   
 Sn18    +0.41129198    +0.066038661   -0.062065932   
 Sn19    -0.08807633    +0.12597188    +0.32996664    
 Sn20    +0.20641416    -0.04020168    +0.21585213    
 Sn21    +0.23287768    -0.40696037    -0.075878709   
 Sn22    -0.17170616    +0.1149178     -0.0069540459  
 Sn23    -0.13653452    -0.015172734   -0.11963609    
 Sn24    -0.12670614    -0.17053642    +0.18089493    
 Sn25    -0.064012424   -0.22141113    -0.078525931   
 Sn26    -0.023273996   +0.14926604    -0.068655373   
 Sn27    -0.022630905   +0.12360669    +0.024710394   
 Sn28    +0.16873329    +0.20135089    -0.12979956    
 Sn29    -0.30168264    +0.049835936   +0.36739319    
 Sn30    -0.12337218    +0.0025697838  +0.11473237    
 Sn31    -0.19635519    +0.048472547   -0.078667013   
 Sn32    -0.22772068    +0.047341562   -0.13388223    
[...]
 Sn25    -0.14544522    -0.47591655    -0.1833715     
 Sn26    -0.046078073   +0.3158832     -0.14161167    
 Sn27    -0.055741763   +0.28598941    +0.065444473   
 Sn28    +0.37697755    +0.44980121    -0.29873624    
 Sn29    -0.649576      +0.056988302   +0.80678688    
 Sn30    -0.27626836    -0.001650375   +0.25689207    
 Sn31    -0.43724248    +0.11299262    -0.17805488    
 Sn32    -0.50107131    +0.11819151    -0.29875966    
 Sn33    -0.21237939    -0.15015479    -0.40537398    
 Sn34    -0.22251305    -0.35075997    +0.29130023    
 Sn35    -0.78270572    -0.36168203    +0.49288746    
 Sn36    -0.77543186    +0.1485968     -0.022909913   
 Sn37    -0.079905882   +0.62323312    -0.37935259    
 Sn38    +0.60194758    +0.24495691    +0.035869386   
 Sn39    +0.29295326    +0.5735144     +0.047490633   
 Sn40    +0.28622049    +0.23328923    -0.24246012    
 Sn41    +0.69177256    +0.38445625    -0.072387566   
 Sn42    -0.32638168    -0.97494516    -0.36959856    
 Sn43    +0.068036291   -0.1204689     -0.29966752    
 Sn44    -0.13858119    +0.2825028     +0.24995933    
 Sn45    +0.22320851    +0.41154984    +0.54964808    
 Sn46    -0.41593332    +0.23138043    -0.19722082    
 Sn47    +0.40743029    +0.42577825    +0.85814484    
 Sn48    -0.63294834    -0.084107198   -0.094161145   
 Sn49    +0.52220773    +0.34551913    -0.16996075    
 Sn50    -0.18841775    -0.43889904    -0.28488601    
 Sn51    -0.27803772    -0.66046567    +0.48263302    
 Sn52    -0.077578811   +0.37849504    +0.50677845    
 Sn53    +0.11469042    +0.046219404   +0.37042097    
 Sn54    -0.54834636    +0.12523756    -0.3821896     
 Sn55    +0.65095403    +0.87129521    -0.66589164    
 Sn56    +0.068599458   -0.96215255    +0.39371816    
 Sn57    -0.8267784     +0.37836081    -0.17742021    
 Sn58    +0.17732934    +0.55467424    -0.56093509    
 Sn59    +0.068862389   +0.34527341    -0.087112636   
 Sn60    +0.69289015    -0.29359126    -0.25096976    
 Sn61    -0.36361211    +0.12803863    -0.21631512    
 Sn62    +0.061126938   -0.090555002   +0.61271415    
 Sn63    -0.21861921    -0.51366549    +0.19164624    
 Sn64    -0.23396702    -0.061139251   -0.11019191    


 ------------------------------------------------------------------------------------------------
 Energy              Potential           Kinetic             Temperature         
 -226.05633          -226.43626          0.37992598          1269.5343           
 ------------------------------------------------------------------------------------------------



 -------------------------------------------
 STEP OF MOLECULAR DYNAMICS : 10
 -------------------------------------------
 searching radius is (Bohr))              = 16.01
 searching radius unit is (Bohr))         = 23.4538
 enter setAlltoallvParameter, nblk        = 32
checkpoint 2
 pnum                                     = 0
 prow                                     = 0
 pcol                                     = 0
 nRow_in_proc                             = 320
 nCol_in_proc                             = 175
 pnum                                     = 1
 prow                                     = 0
 pcol                                     = 1
 nRow_in_proc                             = 320
 nCol_in_proc                             = 162
 pnum                                     = 2
 prow                                     = 0
 pcol                                     = 2
 nRow_in_proc                             = 320
 nCol_in_proc                             = 145
 pnum                                     = 3
 prow                                     = 0
 pcol                                     = 3
 nRow_in_proc                             = 320
 nCol_in_proc                             = 142
 pnum                                     = 4
 prow                                     = 1
 pcol                                     = 0
 nRow_in_proc                             = 304
 nCol_in_proc                             = 175
 pnum                                     = 5
 prow                                     = 1
 pcol                                     = 1
 nRow_in_proc                             = 304
 nCol_in_proc                             = 162
 pnum                                     = 6
 prow                                     = 1
 pcol                                     = 2
 nRow_in_proc                             = 304
 nCol_in_proc                             = 145
 pnum                                     = 7
 prow                                     = 1
 pcol                                     = 3
 nRow_in_proc                             = 304
 nCol_in_proc                             = 142
receiver_size is 389376 ; receiver_size of each process is:
56000 51840 46400 45440 53200 49248 44080 43168 
sender_size is 499971 ; sender_size of each process is:
56000 64428 76171 71198 67776 67070 48032 49296 
 gamma_only_local                         = 1

 LCAO ALGORITHM --------------- ION=11    ELEC=1   --------------------------------

vlocal exchange index is built
 buffer size(M):                          = 6
 buffer index size(M):                    = 6
 vlocal data are put in sender_buffer, size(M): = 2
 vlocal data are exchanged, received size(M): = 3

K-S equation was solved by genelpa2

eigenvalues were copied to ekb
 cal_dk_gamma_from_2D, NSPIN              = 1
 number of non-zero elements in sender_buffer = 499971
 sender_size                              = 499971
 last sender_buffer                       = 0.0344304
 number of non-zero elements in receiver_buffer = 389376
 receiver_size                            = 389376
 last receiver_buffer                     = 0.00106313

 Density error is 0.000983592892687

 LCAO ALGORITHM --------------- ION=11    ELEC=2   --------------------------------
 vlocal data are put in sender_buffer, size(M): = 2
 vlocal data are exchanged, received size(M): = 3

K-S equation was solved by genelpa2

eigenvalues were copied to ekb
 cal_dk_gamma_from_2D, NSPIN              = 1
 number of non-zero elements in sender_buffer = 499971
 sender_size                              = 499971
 last sender_buffer                       = 0.0344187368647
 number of non-zero elements in receiver_buffer = 389376
 receiver_size                            = 389376
 last receiver_buffer                     = 0.00106403326788

 Density error is 0.000546320475999

 LCAO ALGORITHM --------------- ION=11    ELEC=3   --------------------------------
 vlocal data are put in sender_buffer, size(M): = 2
 vlocal data are exchanged, received size(M): = 3

K-S equation was solved by genelpa2

eigenvalues were copied to ekb
 cal_dk_gamma_from_2D, NSPIN              = 1
 number of non-zero elements in sender_buffer = 499971
 sender_size                              = 499971
 last sender_buffer                       = 0.0344109014635
 number of non-zero elements in receiver_buffer = 389376
 receiver_size                            = 389376
 last receiver_buffer                     = 0.00106218107371

 Density error is 0.000269146040073

 LCAO ALGORITHM --------------- ION=11    ELEC=4   --------------------------------
 vlocal data are put in sender_buffer, size(M): = 2
 vlocal data are exchanged, received size(M): = 3

K-S equation was solved by genelpa2

eigenvalues were copied to ekb
 cal_dk_gamma_from_2D, NSPIN              = 1
 number of non-zero elements in sender_buffer = 499971
 sender_size                              = 499971
 last sender_buffer                       = 0.0344253296399
 number of non-zero elements in receiver_buffer = 389376
 receiver_size                            = 389376
 last receiver_buffer                     = 0.00106336933441

 Density error is 8.37800201138e-05

 LCAO ALGORITHM --------------- ION=11    ELEC=5   --------------------------------
 vlocal data are put in sender_buffer, size(M): = 2
 vlocal data are exchanged, received size(M): = 3

K-S equation was solved by genelpa2

eigenvalues were copied to ekb
 cal_dk_gamma_from_2D, NSPIN              = 1
 number of non-zero elements in sender_buffer = 499971
 sender_size                              = 499971
 last sender_buffer                       = 0.0344128076257
 number of non-zero elements in receiver_buffer = 389376
 receiver_size                            = 389376
 last receiver_buffer                     = 0.00106331105123

 Density error is 5.85968051535e-05

 LCAO ALGORITHM --------------- ION=11    ELEC=6   --------------------------------
 vlocal data are put in sender_buffer, size(M): = 2
 vlocal data are exchanged, received size(M): = 3

K-S equation was solved by genelpa2

eigenvalues were copied to ekb
 cal_dk_gamma_from_2D, NSPIN              = 1
 number of non-zero elements in sender_buffer = 499971
 sender_size                              = 499971
 last sender_buffer                       = 0.0344190636723
 number of non-zero elements in receiver_buffer = 389376
 receiver_size                            = 389376
 last receiver_buffer                     = 0.00106327145234

 Density error is 1.44721704083e-05

 LCAO ALGORITHM --------------- ION=11    ELEC=7   --------------------------------
 vlocal data are put in sender_buffer, size(M): = 2
 vlocal data are exchanged, received size(M): = 3

K-S equation was solved by genelpa2

eigenvalues were copied to ekb
 cal_dk_gamma_from_2D, NSPIN              = 1
 number of non-zero elements in sender_buffer = 499971
 sender_size                              = 499971
 last sender_buffer                       = 0.0344182845692
 number of non-zero elements in receiver_buffer = 389376
 receiver_size                            = 389376
 last receiver_buffer                     = 0.00106322110878

 Density error is 5.52811657788e-06

 charge density convergence is achieved
 final etot is -6161.45821682 eV

 ><><><><><><><><><><><><><><><><><><><><><><

    TOTAL-FORCE (eV/Angstrom)

 ><><><><><><><><><><><><><><><><><><><><><><

 atom    x              y              z              
 Sn1     -0.36411476    +0.37307342    +0.07862086    
 Sn2     -0.35942531    -0.48483414    -0.047634241   
 Sn3     +0.58825448    -0.45224442    +0.35667822    
 Sn4     -0.078580739   -0.028098813   -0.32765938    
 Sn5     +0.29655561    -0.014025034   -0.70022789    
 Sn6     -0.47436397    +0.12671676    -0.33863089    
 Sn7     +0.69151545    +0.30475258    +0.612352      
 Sn8     +0.2435834     +0.49393325    -0.87468257    
 Sn9     +0.85090232    +0.17255686    +0.53314005    
 Sn10    +0.52937811    -0.85327797    +0.67982747    
 Sn11    +0.33775643    -0.33180634    +0.032999128   
 Sn12    +0.25800064    +0.055723289   -0.28143691    
 Sn13    +0.34928112    -0.16620504    -0.034358161   
 Sn14    -0.73893728    +0.060639392   -0.43338977    
 Sn15    +0.043642066   -0.58036121    +0.05555684    
 Sn16    +0.10293656    -0.29371604    -0.67769534    
 Sn17    +0.37158891    -0.44070101    +0.15519504    
 Sn18    +1.0137603     +0.18699299    -0.17160131    
 Sn19    -0.24094583    +0.33404442    +0.82004285    
 Sn20    +0.52982357    -0.13408504    +0.54171481    
 Sn21    +0.57788895    -0.96817812    -0.24280669    
 Sn22    -0.419264      +0.27382554    -0.036310446   
 Sn23    -0.32687387    -0.025540465   -0.28423123    
 Sn24    -0.31677174    -0.41229123    +0.442999      
 Sn25    -0.16203208    -0.52292741    -0.20520296    
 Sn26    -0.050811867   +0.34676765    -0.15429114    
 Sn27    -0.062996385   +0.31855635    +0.074891752   
 Sn28    +0.41709007    +0.49851096    -0.33332783    
 Sn29    -0.71386585    +0.05240725    +0.89150655    
 Sn30    -0.30684332    -0.0028857987  +0.28391559    
 Sn31    -0.48437812    +0.12645966    -0.19714432    
 Sn32    -0.55274972    +0.13389143    -0.33104965    
 Sn33    -0.23640183    -0.16868718    -0.44884179    
 Sn34    -0.24346295    -0.38801165    +0.32317335    
 Sn35    -0.8512519     -0.3841714     +0.53181577    
 Sn36    -0.85446432    +0.16440649    -0.022473838   
 Sn37    -0.094530358   +0.69135507    -0.42205007    
 Sn38    +0.66873627    +0.27006647    +0.042429314   
 Sn39    +0.32088816    +0.6284691     +0.055841956   
 Sn40    +0.31412577    +0.25527737    -0.26617272    
 Sn41    +0.76720353    +0.42559139    -0.086170737   
 Sn42    -0.36933369    -1.0840652     -0.41441598    
 Sn43    +0.074417833   -0.13403227    -0.33273291    
 Sn44    -0.15421668    +0.3102352     +0.27809444    
 Sn45    +0.24983696    +0.45510671    +0.6064558     
 Sn46    -0.45632672    +0.25674334    -0.21885617    
 Sn47    +0.458372      +0.47911351    +0.95275328    
 Sn48    -0.70196609    -0.092415475   -0.10326029    
 Sn49    +0.57656271    +0.38321754    -0.1924638     
 Sn50    -0.21137874    -0.48727515    -0.31949613    
 Sn51    -0.29996759    -0.72878778    +0.52798899    
 Sn52    -0.090529997   +0.41889766    +0.5617179     
 Sn53    +0.12721331    +0.050596635   +0.4118461     
 Sn54    -0.60603204    +0.14354799    -0.42237739    
 Sn55    +0.70449315    +0.95550062    -0.72243831    
 Sn56    +0.06582645    -1.0613721     +0.43505204    
 Sn57    -0.90767419    +0.41213603    -0.18713051    
 Sn58    +0.20369707    +0.61083274    -0.61810633    
 Sn59    +0.076094615   +0.37956141    -0.094633723   
 Sn60    +0.76049611    -0.31874082    -0.26903833    
 Sn61    -0.40149115    +0.14298836    -0.24082042    
 Sn62    +0.064713317   -0.09883814    +0.67581361    
 Sn63    -0.24444869    -0.56801768    +0.21341071    
 Sn64    -0.2582034     -0.066902471   -0.12267323    


 ------------------------------------------------------------------------------------------------
 Energy              Potential           Kinetic             Temperature         
 -226.0562           -226.42933          0.37313048          1246.8269           
 ------------------------------------------------------------------------------------------------




 --------------------------------------------
 !FINAL_ETOT_IS -6161.458216817956 eV
 --------------------------------------------






  |CLASS_NAME---------|NAME---------------|TIME(Sec)-----|CALLS----|AVG------|PER%-------
                       total               233.72         11        21        1e+02     %
   Run_lcao            lcao_line           233.67         1         2.3e+02   1e+02     %
   PW_Basis            setup_struc_factor  0.85917        11        0.078     0.37      %
   Potential           init_pot            0.72338        22        0.033     0.31      %
   Potential           set_local_pot       0.44917        22        0.02      0.19      %
   PW_Basis            recip2real          0.72138        141       0.0051    0.31      %
   PW_Basis            gathers_scatterp    0.54397        141       0.0039    0.23      %
   Charge              atomic_rho          0.31416        21        0.015     0.13      %
   Potential           v_of_rho            1.0012         98        0.01      0.43      %
   XC_Functional       v_xc                0.48257        109       0.0044    0.21      %
   H_Hartree_pw        v_hartree           0.52881        98        0.0054    0.23      %
   PW_Basis            real2recip          0.59128        283       0.0021    0.25      %
   PW_Basis            gatherp_scatters    0.24506        283       0.00087   0.1       %
   ORB_control         set_orb_tables      0.5757         1         0.58      0.25      %
   ORB_gen_tables      gen_tables          0.57569        1         0.58      0.25      %
   ORB_table_phi       init_Table          0.37511        1         0.38      0.16      %
   ORB_table_phi       cal_ST_Phi12_R      0.37065        70        0.0053    0.16      %
   Run_MD_LCAO         opt_ions            232.86         1         2.3e+02   1e+02     %
   NVT_NHC             setup               19.336         1         19        8.3       %
   MD_func             force_stress        231.58         11        21        99        %
   ESolver_KS_LCAO     Run                 166.78         11        15        71        %
   ESolver_KS_LCAO     beforescf           7.5968         11        0.69      3.3       %
   ESolver_KS_LCAO     beforesolver        104.89         6         17        45        %
   ESolver_KS_LCAO     set_matrix_grid     0.41773        11        0.038     0.18      %
   Grid_Technique      init                0.37592        11        0.034     0.16      %
   Grid_BigCell        grid_expansion_index0.19856        22        0.009     0.085     %
   LCAO_Hamilt         set_lcao_matrices   6.8532         11        0.62      2.9       %
   LCAO_gen_fixedH     calculate_S_no      0.56461        11        0.051     0.24      %
   LCAO_gen_fixedH     build_Nonlocal_beta_new5.6787         11        0.52      2.4       %
   ORB_gen_tables      snap_psibeta_half   1.4196         645216    2.2e-06   0.61      %
   H_Ewald_pw          compute_ewald       0.25983        11        0.024     0.11      %
   HSolverLCAO         solve               157.23         76        2.1       67        %
   HamiltLCAO          updateHk            67.764         76        0.89      29        %
   LCAO_Hamilt         cal_Hgamma          67.716         76        0.89      29        %
   Gint_interface      cal_gint            173.07         163       1.1       74        %
   Gint_Gamma          distri_vl_index     0.1357         11        0.012     0.058     %
   Gint_Gamma          distri_vl_value     1.6244         76        0.021     0.7       %
   Gint_Gamma          distri_vl           113.1          38        3         48        %
   DiagoElpa           elpa_solve          10.8           76        0.14      4.6       %
   ElecStateLCAO       psiToRho            78.657         76        1         34        %
   ElecStateLCAO       cal_dm_2d           0.60509        76        0.008     0.26      %
    Local_Orbital_wfc  wfc_2d_to_grid      0.14331        76        0.0019    0.061     %
   LCAO_Charge         dm_2dTOgrid         0.73036        76        0.0096    0.31      %
   Charge              mix_rho             0.62344        65        0.0096    0.27      %
   Force_Stress_LCAO   getForceStress      64.794         11        5.9       28        %
   Forces              cal_force_loc       0.65492        11        0.06      0.28      %
   Forces              cal_force_ew        0.64369        11        0.059     0.28      %
   Force_LCAO_gamma    ftable_gamma        62.594         11        5.7       27        %
   Force_LCAO_gamma    allocate_gamma      14.874         11        1.4       6.4       %
   LCAO_gen_fixedH     build_Nonlocal_mu_new9.999          11        0.91      4.3       %
   Force_LCAO_gamma    cal_foverlap        1.2472         11        0.11      0.53      %
   Force_LCAO_gamma    cal_edm_2d          1.2192         11        0.11      0.52      %
   Force_LCAO_gamma    cal_fvnl_dbeta_new  13.231         11        1.2       5.7       %
   Force_LCAO_gamma    cal_fvl_dphi        33.158         11        3         14        %
 ----------------------------------------------------------------------------------------

 CLASS_NAME---------|NAME---------------|MEMORY(MB)--------
                                         428.1
 ORB_table_phi       Jl(x)               75.79          
 Charge_Pulay        Rrho                5.933          
 Charge_Pulay        dRrho               5.191          
 Charge_Pulay        drho                5.191          
 LocalOrbital_Charge Density_Kernal      2.971          
 force_lo            dS                  2.133          
 force_lo            dTVNL               2.133          
 Grid_Meshcell       index2normal        1.81           
 Grid_Meshcell       index2ucell         1.81           
 ORB_table_phi       Table_SR&TR         1.225          
 ----------------------------------------------------------

 Start  Time  : Tue Jul  5 15:19:49 2022
 Finish Time  : Tue Jul  5 15:23:43 2022
 Total  Time  : 0 h 3 mins 54 secs 
