 vasp.5.3.2 13Sep12 (build Apr 01 2013 09:32:17) complex                        
  
 executed on             LinuxIFC date 2013.09.06  21:12:21
 serial version


--------------------------------------------------------------------------------------------------------


 INCAR:
 POTCAR:  PAW_PBE Ac 06Sep2000                    
 POTCAR:  PAW_PBE Ag 06Sep2000                    
 POTCAR:  PAW_PBE Ac 06Sep2000                    
   VRHFIN =Ac:                                                                  
   LEXCH  = PE                                                                  
   EATOM  =   812.3392 eV,   59.7052 Ry                                         
                                                                                
   TITEL  = PAW_PBE Ac 06Sep2000                                                
   LULTRA =        F    use ultrasoft PP ?                                      
   IUNSCR =        1    unscreen: 0-lin 1-nonlin 2-no                           
   RPACOR =    2.000    partial core radius                                     
   POMASS =  227.028; ZVAL   =   11.000    mass and valenz                      
   RCORE  =    2.900    outmost cutoff radius                                   
   RWIGS  =    2.900; RWIGS  =    1.535    wigner-seitz radius (au A)           
   ENMAX  =  172.237; ENMIN  =  129.178 eV                                      
   RCLOC  =    2.010    cutoff for local pot                                    
   LCOR   =        T    correct aug charges                                     
   LPAW   =        T    paw PP                                                  
   EAUG   =  543.281                                                            
   DEXC   =    -.001                                                            
   RMAX   =    3.513    core radius for proj-oper                               
   RAUG   =    1.300    factor for augmentation sphere                          
   RDEP   =    2.904    radius for radial grids                                 
   QCUT   =   -3.558; QGAM   =    7.116    optimization parameters              
                                                                                
   Description                                                                  
     l     E      TYP  RCUT    TYP  RCUT                                        
     0   .000     23  2.880                                                     
     0   .000     23  2.880                                                     
     1   .000     23  2.900                                                     
     1   .000     23  2.900                                                     
     2   .000     23  2.900                                                     
     2   .000     23  2.900                                                     
     3   .000     23  2.900                                                     
     3   .100     23  2.900                                                     
  local pseudopotential read in
  partial core-charges read in
  atomic valenz-charges read in
  non local Contribution for L=           0  read in
    real space projection operators read in
  non local Contribution for L=           0  read in
    real space projection operators read in
  non local Contribution for L=           1  read in
    real space projection operators read in
  non local Contribution for L=           1  read in
    real space projection operators read in
  non local Contribution for L=           2  read in
    real space projection operators read in
  non local Contribution for L=           2  read in
    real space projection operators read in
  non local Contribution for L=           3  read in
    real space projection operators read in
  non local Contribution for L=           3  read in
    real space projection operators read in
    PAW grid and wavefunctions read in
 
   number of l-projection  operators is LMAX  =           8
   number of lm-projection operators is LMMAX =          32
 
 POTCAR:  PAW_PBE Ag 06Sep2000                    
   VRHFIN =Ag : s1 d10                                                          
   LEXCH  = PE                                                                  
   EATOM  =  1037.4134 eV,   76.2477 Ry                                         
                                                                                
   TITEL  = PAW_PBE Ag 06Sep2000                                                
   LULTRA =        F    use ultrasoft PP ?                                      
   IUNSCR =        1    unscreen: 0-lin 1-nonlin 2-no                           
   RPACOR =    2.000    partial core radius                                     
   POMASS =  107.868; ZVAL   =   11.000    mass and valenz                      
   RCORE  =    2.400    outmost cutoff radius                                   
   RWIGS  =    2.840; RWIGS  =    1.503    wigner-seitz radius (au A)           
   ENMAX  =  249.846; ENMIN  =  187.385 eV                                      
   RCLOC  =    1.962    cutoff for local pot                                    
   LCOR   =        T    correct aug charges                                     
   LPAW   =        T    paw PP                                                  
   EAUG   =  412.496                                                            
   DEXC   =    -.047                                                            
   RMAX   =    2.917    core radius for proj-oper                               
   RAUG   =    1.300    factor for augmentation sphere                          
   RDEP   =    2.416    radius for radial grids                                 
   QCUT   =   -4.285; QGAM   =    8.570    optimization parameters              
                                                                                
   Description                                                                  
     l     E      TYP  RCUT    TYP  RCUT                                        
     2   .000     23  2.400                                                     
     2   .000     23  2.400                                                     
     0   .000     23  2.400                                                     
     0   .000     23  2.400                                                     
     1  -.200     23  2.400                                                     
     1  1.500     23  2.400                                                     
     3   .000      7   .000                                                     
  local pseudopotential read in
  partial core-charges read in
  atomic valenz-charges read in
  non local Contribution for L=           2  read in
    real space projection operators read in
  non local Contribution for L=           2  read in
    real space projection operators read in
  non local Contribution for L=           0  read in
    real space projection operators read in
  non local Contribution for L=           0  read in
    real space projection operators read in
  non local Contribution for L=           1  read in
    real space projection operators read in
  non local Contribution for L=           1  read in
    real space projection operators read in
    PAW grid and wavefunctions read in
 
   number of l-projection  operators is LMAX  =           6
   number of lm-projection operators is LMMAX =          18
 
PAW_PBE Ac 06Sep2000                    :
 energy of atom  1       EATOM= -812.3392
 kinetic energy error for atom=    0.0004 (will be added to EATOM!!)
PAW_PBE Ag 06Sep2000                    :
 energy of atom  2       EATOM=-1037.4134
 kinetic energy error for atom=    0.0047 (will be added to EATOM!!)
 
 
 POSCAR: Ac Ag                                   
  positions in direct lattice
  No initial velocities read in
 exchange correlation table for  LEXCH =        8
   RHO(1)=    0.500       N(1)  =     2000
   RHO(2)=  100.500       N(2)  =     4000
 


--------------------------------------------------------------------------------------------------------


 ion  position               nearest neighbor table
   1  0.000  0.000  0.000-   2 3.14   2 3.14   2 3.14   2 3.14   2 3.14   2 3.14
   2  0.500  0.500  0.500-   1 3.14   1 3.14   1 3.14   1 3.14   1 3.14   1 3.14
 
  LATTYP: Found a face centered cubic cell.
 ALAT       =     6.2830760000
  
  Lattice vectors:
  
 A1 = (   0.0000000000,   3.1415380000,   3.1415380000)
 A2 = (   3.1415380000,   0.0000000000,   3.1415380000)
 A3 = (   3.1415380000,   3.1415380000,   0.0000000000)


Analysis of symmetry for initial positions (statically):
=====================================================================
 Subroutine PRICEL returns:
 Original cell was already a primitive cell.
 

 Routine SETGRP: Setting up the symmetry group for a 
 face centered cubic supercell.


 Subroutine GETGRP returns: Found 48 space group operations
 (whereof 48 operations were pure point group operations)
 out of a pool of 48 trial point group operations.


The static configuration has the point symmetry O_h .


Analysis of symmetry for dynamics (positions and initial velocities):
=====================================================================
 Subroutine PRICEL returns:
 Original cell was already a primitive cell.
 

 Routine SETGRP: Setting up the symmetry group for a 
 face centered cubic supercell.


 Subroutine GETGRP returns: Found 48 space group operations
 (whereof 48 operations were pure point group operations)
 out of a pool of 48 trial point group operations.


The dynamic configuration has the point symmetry O_h .
 
 
 KPOINTS: KPOINTS                                 

Automatic generation of k-mesh.
Space group operators:
 irot       det(A)        alpha          n_x          n_y          n_z        tau_x        tau_y        tau_z
    1     1.000000     0.000000     1.000000     0.000000     0.000000     0.000000     0.000000     0.000000
    2    -1.000000     0.000000     1.000000     0.000000     0.000000     0.000000     0.000000     0.000000
    3     1.000000   120.000000    -0.577350    -0.577350    -0.577350     0.000000     0.000000     0.000000
    4    -1.000000   120.000000    -0.577350    -0.577350    -0.577350     0.000000     0.000000     0.000000
    5     1.000000   120.000000     0.577350     0.577350     0.577350     0.000000     0.000000     0.000000
    6    -1.000000   120.000000     0.577350     0.577350     0.577350     0.000000     0.000000     0.000000
    7     1.000000    90.000000     0.000000     0.000000    -1.000000     0.000000     0.000000     0.000000
    8    -1.000000    90.000000     0.000000     0.000000    -1.000000     0.000000     0.000000     0.000000
    9     1.000000   180.000000     0.000000     0.707107     0.707107     0.000000     0.000000     0.000000
   10    -1.000000   180.000000     0.000000     0.707107     0.707107     0.000000     0.000000     0.000000
   11     1.000000    90.000000     0.000000     1.000000     0.000000     0.000000     0.000000     0.000000
   12    -1.000000    90.000000     0.000000     1.000000     0.000000     0.000000     0.000000     0.000000
   13     1.000000   180.000000     0.000000     0.000000     1.000000     0.000000     0.000000     0.000000
   14    -1.000000   180.000000     0.000000     0.000000     1.000000     0.000000     0.000000     0.000000
   15     1.000000   120.000000    -0.577350     0.577350     0.577350     0.000000     0.000000     0.000000
   16    -1.000000   120.000000    -0.577350     0.577350     0.577350     0.000000     0.000000     0.000000
   17     1.000000   120.000000    -0.577350     0.577350    -0.577350     0.000000     0.000000     0.000000
   18    -1.000000   120.000000    -0.577350     0.577350    -0.577350     0.000000     0.000000     0.000000
   19     1.000000    90.000000     0.000000     0.000000     1.000000     0.000000     0.000000     0.000000
   20    -1.000000    90.000000     0.000000     0.000000     1.000000     0.000000     0.000000     0.000000
   21     1.000000    90.000000    -1.000000     0.000000     0.000000     0.000000     0.000000     0.000000
   22    -1.000000    90.000000    -1.000000     0.000000     0.000000     0.000000     0.000000     0.000000
   23     1.000000   180.000000     0.707107     0.000000     0.707107     0.000000     0.000000     0.000000
   24    -1.000000   180.000000     0.707107     0.000000     0.707107     0.000000     0.000000     0.000000
   25     1.000000   120.000000     0.577350    -0.577350     0.577350     0.000000     0.000000     0.000000
   26    -1.000000   120.000000     0.577350    -0.577350     0.577350     0.000000     0.000000     0.000000
   27     1.000000   120.000000    -0.577350    -0.577350     0.577350     0.000000     0.000000     0.000000
   28    -1.000000   120.000000    -0.577350    -0.577350     0.577350     0.000000     0.000000     0.000000
   29     1.000000   180.000000     1.000000     0.000000     0.000000     0.000000     0.000000     0.000000
   30    -1.000000   180.000000     1.000000     0.000000     0.000000     0.000000     0.000000     0.000000
   31     1.000000    90.000000     0.000000    -1.000000     0.000000     0.000000     0.000000     0.000000
   32    -1.000000    90.000000     0.000000    -1.000000     0.000000     0.000000     0.000000     0.000000
   33     1.000000   180.000000     0.707107     0.707107     0.000000     0.000000     0.000000     0.000000
   34    -1.000000   180.000000     0.707107     0.707107     0.000000     0.000000     0.000000     0.000000
   35     1.000000    90.000000     1.000000     0.000000     0.000000     0.000000     0.000000     0.000000
   36    -1.000000    90.000000     1.000000     0.000000     0.000000     0.000000     0.000000     0.000000
   37     1.000000   120.000000     0.577350    -0.577350    -0.577350     0.000000     0.000000     0.000000
   38    -1.000000   120.000000     0.577350    -0.577350    -0.577350     0.000000     0.000000     0.000000
   39     1.000000   180.000000     0.000000     1.000000     0.000000     0.000000     0.000000     0.000000
   40    -1.000000   180.000000     0.000000     1.000000     0.000000     0.000000     0.000000     0.000000
   41     1.000000   120.000000     0.577350     0.577350    -0.577350     0.000000     0.000000     0.000000
   42    -1.000000   120.000000     0.577350     0.577350    -0.577350     0.000000     0.000000     0.000000
   43     1.000000   180.000000     0.000000    -0.707107     0.707107     0.000000     0.000000     0.000000
   44    -1.000000   180.000000     0.000000    -0.707107     0.707107     0.000000     0.000000     0.000000
   45     1.000000   180.000000     0.707107    -0.707107     0.000000     0.000000     0.000000     0.000000
   46    -1.000000   180.000000     0.707107    -0.707107     0.000000     0.000000     0.000000     0.000000
   47     1.000000   180.000000     0.707107     0.000000    -0.707107     0.000000     0.000000     0.000000
   48    -1.000000   180.000000     0.707107     0.000000    -0.707107     0.000000     0.000000     0.000000
 
 Subroutine IBZKPT returns following result:
 ===========================================
 
 Found    145 irreducible k-points:
 
 Following reciprocal coordinates:
            Coordinates               Weight
  0.000000  0.000000  0.000000      1.000000
  0.062500  0.000000  0.000000      8.000000
  0.125000  0.000000  0.000000      8.000000
  0.187500  0.000000  0.000000      8.000000
  0.250000  0.000000  0.000000      8.000000
  0.312500  0.000000  0.000000      8.000000
  0.375000  0.000000  0.000000      8.000000
  0.437500  0.000000  0.000000      8.000000
  0.500000  0.000000  0.000000      4.000000
  0.062500  0.062500  0.000000      6.000000
  0.125000  0.062500  0.000000     24.000000
  0.187500  0.062500  0.000000     24.000000
  0.250000  0.062500  0.000000     24.000000
  0.312500  0.062500  0.000000     24.000000
  0.375000  0.062500  0.000000     24.000000
  0.437500  0.062500  0.000000     24.000000
  0.500000  0.062500  0.000000     24.000000
 -0.437500  0.062500  0.000000     24.000000
 -0.375000  0.062500  0.000000     24.000000
 -0.312500  0.062500  0.000000     24.000000
 -0.250000  0.062500  0.000000     24.000000
 -0.187500  0.062500  0.000000     24.000000
 -0.125000  0.062500  0.000000     24.000000
 -0.062500  0.062500  0.000000     12.000000
  0.125000  0.125000  0.000000      6.000000
  0.187500  0.125000  0.000000     24.000000
  0.250000  0.125000  0.000000     24.000000
  0.312500  0.125000  0.000000     24.000000
  0.375000  0.125000  0.000000     24.000000
  0.437500  0.125000  0.000000     24.000000
  0.500000  0.125000  0.000000     24.000000
 -0.437500  0.125000  0.000000     24.000000
 -0.375000  0.125000  0.000000     24.000000
 -0.312500  0.125000  0.000000     24.000000
 -0.250000  0.125000  0.000000     24.000000
 -0.187500  0.125000  0.000000     24.000000
 -0.125000  0.125000  0.000000     12.000000
  0.187500  0.187500  0.000000      6.000000
  0.250000  0.187500  0.000000     24.000000
  0.312500  0.187500  0.000000     24.000000
  0.375000  0.187500  0.000000     24.000000
  0.437500  0.187500  0.000000     24.000000
  0.500000  0.187500  0.000000     24.000000
 -0.437500  0.187500  0.000000     24.000000
 -0.375000  0.187500  0.000000     24.000000
 -0.312500  0.187500  0.000000     24.000000
 -0.250000  0.187500  0.000000     24.000000
 -0.187500  0.187500  0.000000     12.000000
  0.250000  0.250000  0.000000      6.000000
  0.312500  0.250000  0.000000     24.000000
  0.375000  0.250000  0.000000     24.000000
  0.437500  0.250000  0.000000     24.000000
  0.500000  0.250000  0.000000     24.000000
 -0.437500  0.250000  0.000000     24.000000
 -0.375000  0.250000  0.000000     24.000000
 -0.312500  0.250000  0.000000     24.000000
 -0.250000  0.250000  0.000000     12.000000
  0.312500  0.312500  0.000000      6.000000
  0.375000  0.312500  0.000000     24.000000
  0.437500  0.312500  0.000000     24.000000
  0.500000  0.312500  0.000000     24.000000
 -0.437500  0.312500  0.000000     24.000000
 -0.375000  0.312500  0.000000     24.000000
 -0.312500  0.312500  0.000000     12.000000
  0.375000  0.375000  0.000000      6.000000
  0.437500  0.375000  0.000000     24.000000
  0.500000  0.375000  0.000000     24.000000
 -0.437500  0.375000  0.000000     24.000000
 -0.375000  0.375000  0.000000     12.000000
  0.437500  0.437500  0.000000      6.000000
  0.500000  0.437500  0.000000     24.000000
 -0.437500  0.437500  0.000000     12.000000
  0.500000  0.500000  0.000000      3.000000
  0.187500  0.125000  0.062500     24.000000
  0.250000  0.125000  0.062500     48.000000
  0.312500  0.125000  0.062500     48.000000
  0.375000  0.125000  0.062500     48.000000
  0.437500  0.125000  0.062500     48.000000
  0.500000  0.125000  0.062500     48.000000
 -0.437500  0.125000  0.062500     24.000000
  0.250000  0.187500  0.062500     24.000000
  0.312500  0.187500  0.062500     48.000000
  0.375000  0.187500  0.062500     48.000000
  0.437500  0.187500  0.062500     48.000000
  0.500000  0.187500  0.062500     48.000000
 -0.437500  0.187500  0.062500     48.000000
 -0.375000  0.187500  0.062500     48.000000
 -0.312500  0.187500  0.062500     48.000000
 -0.250000  0.187500  0.062500     48.000000
 -0.187500  0.187500  0.062500     48.000000
 -0.125000  0.187500  0.062500     24.000000
  0.312500  0.250000  0.062500     24.000000
  0.375000  0.250000  0.062500     48.000000
  0.437500  0.250000  0.062500     48.000000
  0.500000  0.250000  0.062500     48.000000
 -0.437500  0.250000  0.062500     48.000000
 -0.375000  0.250000  0.062500     48.000000
 -0.312500  0.250000  0.062500     48.000000
 -0.250000  0.250000  0.062500     48.000000
 -0.187500  0.250000  0.062500     24.000000
  0.375000  0.312500  0.062500     24.000000
  0.437500  0.312500  0.062500     48.000000
  0.500000  0.312500  0.062500     48.000000
 -0.437500  0.312500  0.062500     48.000000
 -0.375000  0.312500  0.062500     48.000000
 -0.312500  0.312500  0.062500     48.000000
 -0.250000  0.312500  0.062500     24.000000
  0.437500  0.375000  0.062500     24.000000
  0.500000  0.375000  0.062500     48.000000
 -0.437500  0.375000  0.062500     48.000000
 -0.375000  0.375000  0.062500     48.000000
 -0.312500  0.375000  0.062500     24.000000
  0.500000  0.437500  0.062500     24.000000
 -0.437500  0.437500  0.062500     48.000000
 -0.375000  0.437500  0.062500     24.000000
 -0.437500  0.500000  0.062500     12.000000
  0.375000  0.250000  0.125000     24.000000
  0.437500  0.250000  0.125000     48.000000
  0.500000  0.250000  0.125000     48.000000
 -0.437500  0.250000  0.125000     48.000000
 -0.375000  0.250000  0.125000     24.000000
  0.437500  0.312500  0.125000     24.000000
  0.500000  0.312500  0.125000     48.000000
 -0.437500  0.312500  0.125000     48.000000
 -0.375000  0.312500  0.125000     48.000000
 -0.312500  0.312500  0.125000     48.000000
 -0.250000  0.312500  0.125000     48.000000
 -0.187500  0.312500  0.125000     24.000000
  0.500000  0.375000  0.125000     24.000000
 -0.437500  0.375000  0.125000     48.000000
 -0.375000  0.375000  0.125000     48.000000
 -0.312500  0.375000  0.125000     48.000000
 -0.250000  0.375000  0.125000     24.000000
 -0.437500  0.437500  0.125000     24.000000
 -0.375000  0.437500  0.125000     48.000000
 -0.312500  0.437500  0.125000     24.000000
 -0.375000  0.500000  0.125000     12.000000
 -0.437500  0.375000  0.187500     24.000000
 -0.375000  0.375000  0.187500     48.000000
 -0.312500  0.375000  0.187500     24.000000
 -0.375000  0.437500  0.187500     24.000000
 -0.312500  0.437500  0.187500     48.000000
 -0.250000  0.437500  0.187500     24.000000
 -0.312500  0.500000  0.187500     12.000000
 -0.250000  0.500000  0.250000      6.000000
 
 Following cartesian coordinates:
            Coordinates               Weight
  0.000000  0.000000  0.000000      1.000000
 -0.009947  0.009947  0.009947      8.000000
 -0.019895  0.019895  0.019895      8.000000
 -0.029842  0.029842  0.029842      8.000000
 -0.039789  0.039789  0.039789      8.000000
 -0.049737  0.049737  0.049737      8.000000
 -0.059684  0.059684  0.059684      8.000000
 -0.069631  0.069631  0.069631      8.000000
 -0.079579  0.079579  0.079579      4.000000
  0.000000  0.000000  0.019895      6.000000
 -0.009947  0.009947  0.029842     24.000000
 -0.019895  0.019895  0.039789     24.000000
 -0.029842  0.029842  0.049737     24.000000
 -0.039789  0.039789  0.059684     24.000000
 -0.049737  0.049737  0.069631     24.000000
 -0.059684  0.059684  0.079579     24.000000
 -0.069631  0.069631  0.089526     24.000000
  0.079579 -0.079579 -0.059684     24.000000
  0.069631 -0.069631 -0.049737     24.000000
  0.059684 -0.059684 -0.039789     24.000000
  0.049737 -0.049737 -0.029842     24.000000
  0.039789 -0.039789 -0.019895     24.000000
  0.029842 -0.029842 -0.009947     24.000000
  0.019895 -0.019895  0.000000     12.000000
  0.000000  0.000000  0.039789      6.000000
 -0.009947  0.009947  0.049737     24.000000
 -0.019895  0.019895  0.059684     24.000000
 -0.029842  0.029842  0.069631     24.000000
 -0.039789  0.039789  0.079579     24.000000
 -0.049737  0.049737  0.089526     24.000000
 -0.059684  0.059684  0.099474     24.000000
  0.089526 -0.089526 -0.049737     24.000000
  0.079579 -0.079579 -0.039789     24.000000
  0.069631 -0.069631 -0.029842     24.000000
  0.059684 -0.059684 -0.019895     24.000000
  0.049737 -0.049737 -0.009947     24.000000
  0.039789 -0.039789  0.000000     12.000000
  0.000000  0.000000  0.059684      6.000000
 -0.009947  0.009947  0.069631     24.000000
 -0.019895  0.019895  0.079579     24.000000
 -0.029842  0.029842  0.089526     24.000000
 -0.039789  0.039789  0.099474     24.000000
 -0.049737  0.049737  0.109421     24.000000
  0.099474 -0.099474 -0.039789     24.000000
  0.089526 -0.089526 -0.029842     24.000000
  0.079579 -0.079579 -0.019895     24.000000
  0.069631 -0.069631 -0.009947     24.000000
  0.059684 -0.059684  0.000000     12.000000
  0.000000  0.000000  0.079579      6.000000
 -0.009947  0.009947  0.089526     24.000000
 -0.019895  0.019895  0.099474     24.000000
 -0.029842  0.029842  0.109421     24.000000
 -0.039789  0.039789  0.119368     24.000000
  0.109421 -0.109421 -0.029842     24.000000
  0.099474 -0.099474 -0.019895     24.000000
  0.089526 -0.089526 -0.009947     24.000000
  0.079579 -0.079579  0.000000     12.000000
  0.000000  0.000000  0.099474      6.000000
 -0.009947  0.009947  0.109421     24.000000
 -0.019895  0.019895  0.119368     24.000000
 -0.029842  0.029842  0.129316     24.000000
  0.119368 -0.119368 -0.019895     24.000000
  0.109421 -0.109421 -0.009947     24.000000
  0.099474 -0.099474  0.000000     12.000000
  0.000000  0.000000  0.119368      6.000000
 -0.009947  0.009947  0.129316     24.000000
 -0.019895  0.019895  0.139263     24.000000
  0.129316 -0.129316 -0.009947     24.000000
  0.119368 -0.119368  0.000000     12.000000
  0.000000  0.000000  0.139263      6.000000
 -0.009947  0.009947  0.149210     24.000000
  0.139263 -0.139263  0.000000     12.000000
  0.000000  0.000000  0.159158      3.000000
  0.000000  0.019895  0.039789     24.000000
 -0.009947  0.029842  0.049737     48.000000
 -0.019895  0.039789  0.059684     48.000000
 -0.029842  0.049737  0.069631     48.000000
 -0.039789  0.059684  0.079579     48.000000
 -0.049737  0.069631  0.089526     48.000000
  0.099474 -0.079579 -0.059684     24.000000
  0.000000  0.019895  0.059684     24.000000
 -0.009947  0.029842  0.069631     48.000000
 -0.019895  0.039789  0.079579     48.000000
 -0.029842  0.049737  0.089526     48.000000
 -0.039789  0.059684  0.099474     48.000000
  0.109421 -0.089526 -0.049737     48.000000
  0.099474 -0.079579 -0.039789     48.000000
  0.089526 -0.069631 -0.029842     48.000000
  0.079579 -0.059684 -0.019895     48.000000
  0.069631 -0.049737 -0.009947     48.000000
  0.059684 -0.039789  0.000000     24.000000
  0.000000  0.019895  0.079579     24.000000
 -0.009947  0.029842  0.089526     48.000000
 -0.019895  0.039789  0.099474     48.000000
 -0.029842  0.049737  0.109421     48.000000
  0.119368 -0.099474 -0.039789     48.000000
  0.109421 -0.089526 -0.029842     48.000000
  0.099474 -0.079579 -0.019895     48.000000
  0.089526 -0.069631 -0.009947     48.000000
  0.079579 -0.059684  0.000000     24.000000
  0.000000  0.019895  0.099474     24.000000
 -0.009947  0.029842  0.109421     48.000000
 -0.019895  0.039789  0.119368     48.000000
  0.129316 -0.109421 -0.029842     48.000000
  0.119368 -0.099474 -0.019895     48.000000
  0.109421 -0.089526 -0.009947     48.000000
  0.099474 -0.079579  0.000000     24.000000
  0.000000  0.019895  0.119368     24.000000
 -0.009947  0.029842  0.129316     48.000000
  0.139263 -0.119368 -0.019895     48.000000
  0.129316 -0.109421 -0.009947     48.000000
  0.119368 -0.099474  0.000000     24.000000
  0.000000  0.019895  0.139263     24.000000
  0.149210 -0.129316 -0.009947     48.000000
  0.139263 -0.119368  0.000000     24.000000
  0.159158 -0.139263  0.000000     12.000000
  0.000000  0.039789  0.079579     24.000000
 -0.009947  0.049737  0.089526     48.000000
 -0.019895  0.059684  0.099474     48.000000
  0.129316 -0.089526 -0.049737     48.000000
  0.119368 -0.079579 -0.039789     24.000000
  0.000000  0.039789  0.099474     24.000000
 -0.009947  0.049737  0.109421     48.000000
  0.139263 -0.099474 -0.039789     48.000000
  0.129316 -0.089526 -0.029842     48.000000
  0.119368 -0.079579 -0.019895     48.000000
  0.109421 -0.069631 -0.009947     48.000000
  0.099474 -0.059684  0.000000     24.000000
  0.000000  0.039789  0.119368     24.000000
  0.149210 -0.109421 -0.029842     48.000000
  0.139263 -0.099474 -0.019895     48.000000
  0.129316 -0.089526 -0.009947     48.000000
  0.119368 -0.079579  0.000000     24.000000
  0.159158 -0.119368 -0.019895     24.000000
  0.149210 -0.109421 -0.009947     48.000000
  0.139263 -0.099474  0.000000     24.000000
  0.159158 -0.119368  0.000000     12.000000
  0.159158 -0.099474 -0.039789     24.000000
  0.149210 -0.089526 -0.029842     48.000000
  0.139263 -0.079579 -0.019895     24.000000
  0.159158 -0.099474 -0.019895     24.000000
  0.149210 -0.089526 -0.009947     48.000000
  0.139263 -0.079579  0.000000     24.000000
  0.159158 -0.099474  0.000000     12.000000
  0.159158 -0.079579  0.000000      6.000000
 
 TETIRR: Found    570 inequivalent tetrahedra from    24576


--------------------------------------------------------------------------------------------------------




 Dimension of arrays:
   k-points           NKPTS =    145   k-points in BZ     NKDIM =    145   number of bands    NBANDS=     15
   number of dos      NEDOS =    301   number of ions     NIONS =      2
   non local maximal  LDIM  =      8   non local SUM 2l+1 LMDIM =     32
   total plane-waves  NPLWV =  21952
   max r-space proj   IRMAX =      1   max aug-charges    IRDMAX=   5670
   dimension x,y,z NGX =    28 NGY =   28 NGZ =   28
   dimension x,y,z NGXF=    36 NGYF=   36 NGZF=   36
   support grid    NGXF=    36 NGYF=   36 NGZF=   36
   ions per type =               1   1
 NGX,Y,Z   is equivalent  to a cutoff of  10.48, 10.48, 10.48 a.u.
 NGXF,Y,Z  is equivalent  to a cutoff of  13.47, 13.47, 13.47 a.u.


 I would recommend the setting:
   dimension x,y,z NGX =    25 NGY =   25 NGZ =   25
 SYSTEM =  unknown system                          
 POSCAR =  Ac Ag                                   

 Startparameter for this run:
   NWRITE =      2    write-flag & timer
   PREC   = med       normal or accurate (medium, high low for compatibility)
   ISTART =      0    job   : 0-new  1-cont  2-samecut
   ICHARG =      1    charge: 1-file 2-atom 10-const
   ISPIN  =      1    spin polarized calculation?
   LNONCOLLINEAR =      F non collinear calculations
   LSORBIT =      F    spin-orbit coupling
   INIWAV =      1    electr: 0-lowe 1-rand  2-diag
   LASPH  =      F    aspherical Exc in radial PAW
   METAGGA=      F    non-selfconsistent MetaGGA calc.

 Electronic Relaxation 1
   ENCUT  =  520.0 eV  38.22 Ry    6.18 a.u.   8.26  8.26  8.26*2*pi/ulx,y,z
   ENINI  =  520.0     initial cutoff
   ENAUG  =  543.3 eV  augmentation charge cutoff
   NELM   =     60;   NELMIN=  2; NELMDL=  0     # of ELM steps 
   EDIFF  = 0.1E-03   stopping-criterion for ELM
   LREAL  =      F    real-space projection
   NLSPLINE    = F    spline interpolate recip. space projectors
   LCOMPAT=      F    compatible to vasp.4.4
   GGA_COMPAT  = T    GGA compatible to vasp.4.4-vasp.4.6
   LMAXPAW     = -100 max onsite density
   LMAXMIX     =    2 max onsite mixed and CHGCAR
   VOSKOWN=      0    Vosko Wilk Nusair interpolation
   ROPT   =    0.00000   0.00000
 Ionic relaxation
   EDIFFG = 0.1E-02   stopping-criterion for IOM
   NSW    =      0    number of steps for IOM
   NBLOCK =      1;   KBLOCK =      1    inner block; outer block 
   IBRION =     -1    ionic relax: 0-MD 1-quasi-New 2-CG
   NFREE  =      0    steps in history (QN), initial steepest desc. (CG)
   ISIF   =      2    stress and relaxation
   IWAVPR =      0    prediction:  0-non 1-charg 2-wave 3-comb
   ISYM   =      1    0-nonsym 1-usesym 2-fastsym
   LCORR  =      T    Harris-Foulkes like correction to forces

   POTIM  = 0.5000    time-step for ionic-motion
   TEIN   =    0.0    initial temperature
   TEBEG  =    0.0;   TEEND  =   0.0 temperature during run
   SMASS  =  -3.00    Nose mass-parameter (am)
   estimated Nose-frequenzy (Omega)   =  0.10E-29 period in steps =****** mass=  -0.451E-27a.u.
   SCALEE = 1.0000    scale energy and forces
   NPACO  =    256;   APACO  = 16.0  distance and # of slots for P.C.
   PSTRESS=    0.0 pullay stress

  Mass of Ions in am
   POMASS = 227.03107.87
  Ionic Valenz
   ZVAL   =  11.00 11.00
  Atomic Wigner-Seitz radii
   RWIGS  =  -1.00 -1.00
  virtual crystal weights 
   VCA    =   1.00  1.00
   NELECT =      22.0000    total number of electrons
   NUPDOWN=      -1.0000    fix difference up-down

 DOS related values:
   EMIN   =  10.00;   EMAX   =-10.00  energy-range for DOS
   EFERMI =   0.00
   ISMEAR =    -5;   SIGMA  =   0.20  broadening in eV -4-tet -1-fermi 0-gaus

 Electronic relaxation 2 (details)
   IALGO  =     68    algorithm
   LDIAG  =      T    sub-space diagonalisation (order eigenvalues)
   LSUBROT=      T    optimize rotation matrix (better conditioning)
   TURBO    =      0    0=normal 1=particle mesh
   IRESTART =      0    0=no restart 2=restart with 2 vectors
   NREBOOT  =      0    no. of reboots
   NMIN     =      0    reboot dimension
   EREF     =   0.00    reference energy to select bands
   IMIX   =      4    mixing-type and parameters
     AMIX     =   0.40;   BMIX     =  1.00
     AMIX_MAG =   1.60;   BMIX_MAG =  1.00
     AMIN     =   0.10
     WC   =   100.;   INIMIX=   1;  MIXPRE=   1;  MAXMIX= -45

 Intra band minimization:
   WEIMIN = 0.0000     energy-eigenvalue tresh-hold
   EBREAK =  0.17E-05  absolut break condition
   DEPER  =   0.30     relativ break condition  

   TIME   =   0.40     timestep for ELM

  volume/ion in A,a.u.               =      31.00       209.23
  Fermi-wavevector in a.u.,A,eV,Ry     =   1.158947  2.190091 18.274762  1.343157
  Thomas-Fermi vector in A             =   2.295544
 
 Write flags
   LWAVE  =      F    write WAVECAR
   LCHARG =      T    write CHGCAR
   LVTOT  =      F    write LOCPOT, total local potential
   LVHAR  =      T    write LOCPOT, Hartree potential only
   LELF   =      T    write electronic localiz. function (ELF)
   LORBIT =     11    0 simple, 1 ext, 2 COOP (PROOUT)


 Dipole corrections
   LMONO  =      F    monopole corrections only (constant potential shift)
   LDIPOL =      F    correct potential (dipole corrections)
   IDIPOL =      0    1-x, 2-y, 3-z, 4-all directions 
   EPSILON=  1.0000000 bulk dielectric constant

 Exchange correlation treatment:
   GGA     =    --    GGA type
   LEXCH   =     8    internal setting for exchange type
   VOSKOWN=      0    Vosko Wilk Nusair interpolation
   LHFCALC =     F    Hartree Fock is set to
   LHFONE  =     F    Hartree Fock one center treatment
   AEXX    =    0.0000 exact exchange contribution

 Linear response parameters
   LEPSILON=     F    determine dielectric tensor
   LRPA    =     F    only Hartree local field effects (RPA)
   LNABLA  =     F    use nabla operator in PAW spheres
   LVEL    =     F    velocity operator in full k-point grid
   LINTERFAST=   F  fast interpolation
   KINTER  =     0    interpolate to denser k-point grid
   CSHIFT  =0.1000    complex shift for real part using Kramers Kronig
   OMEGAMAX=  -1.0    maximum frequency
   DEG_THRESHOLD= 0.2000000E-02 threshold for treating states as degnerate
   RTIME   =    0.100 relaxation time in fs

 Orbital magnetization related:
   ORBITALMAG=     F  switch on orbital magnetization
   LCHIMAG   =     F  perturbation theory with respect to B field
   DQ        =  0.001000  dq finite difference perturbation B field



--------------------------------------------------------------------------------------------------------


 Static calculation
 charge density and potential will be updated during run
 non-spin polarized calculation
 RMM-DIIS sequential band-by-band and
  variant of blocked Davidson during initial phase
 perform sub-space diagonalisation
    before iterative eigenvector-optimisation
 modified Broyden-mixing scheme, WC =      100.0
 initial mixing is a Kerker type mixing with AMIX =  0.4000 and BMIX =      1.0000
 Hartree-type preconditioning will be used
 using additional bands            4
 reciprocal scheme for non local part
 use partial core corrections
 calculate Harris-corrections to forces 
   (improved forces if not selfconsistent)
 use gradient corrections 
 use of overlap-Matrix (Vanderbilt PP)
 Fermi weights with tetrahedron method with Bloechl corrections


--------------------------------------------------------------------------------------------------------


  energy-cutoff  :      520.00
  volume of cell :       62.01
      direct lattice vectors                 reciprocal lattice vectors
     0.000000000  3.141538000  3.141538000    -0.159157712  0.159157712  0.159157712
     3.141538000  0.000000000  3.141538000     0.159157712 -0.159157712  0.159157712
     3.141538000  3.141538000  0.000000000     0.159157712  0.159157712 -0.159157712

  length of vectors
     4.442805646  4.442805646  4.442805646     0.275669243  0.275669243  0.275669243


 
 k-points in units of 2pi/SCALE and weight: KPOINTS                                 
   0.00000000  0.00000000  0.00000000       0.000
  -0.00994736  0.00994736  0.00994736       0.002
  -0.01989471  0.01989471  0.01989471       0.002
  -0.02984207  0.02984207  0.02984207       0.002
  -0.03978943  0.03978943  0.03978943       0.002
  -0.04973678  0.04973678  0.04973678       0.002
  -0.05968414  0.05968414  0.05968414       0.002
  -0.06963150  0.06963150  0.06963150       0.002
  -0.07957886  0.07957886  0.07957886       0.001
   0.00000000  0.00000000  0.01989471       0.001
  -0.00994736  0.00994736  0.02984207       0.006
  -0.01989471  0.01989471  0.03978943       0.006
  -0.02984207  0.02984207  0.04973678       0.006
  -0.03978943  0.03978943  0.05968414       0.006
  -0.04973678  0.04973678  0.06963150       0.006
  -0.05968414  0.05968414  0.07957886       0.006
  -0.06963150  0.06963150  0.08952621       0.006
   0.07957886 -0.07957886 -0.05968414       0.006
   0.06963150 -0.06963150 -0.04973678       0.006
   0.05968414 -0.05968414 -0.03978943       0.006
   0.04973678 -0.04973678 -0.02984207       0.006
   0.03978943 -0.03978943 -0.01989471       0.006
   0.02984207 -0.02984207 -0.00994736       0.006
   0.01989471 -0.01989471  0.00000000       0.003
   0.00000000  0.00000000  0.03978943       0.001
  -0.00994736  0.00994736  0.04973678       0.006
  -0.01989471  0.01989471  0.05968414       0.006
  -0.02984207  0.02984207  0.06963150       0.006
  -0.03978943  0.03978943  0.07957886       0.006
  -0.04973678  0.04973678  0.08952621       0.006
  -0.05968414  0.05968414  0.09947357       0.006
   0.08952621 -0.08952621 -0.04973678       0.006
   0.07957886 -0.07957886 -0.03978943       0.006
   0.06963150 -0.06963150 -0.02984207       0.006
   0.05968414 -0.05968414 -0.01989471       0.006
   0.04973678 -0.04973678 -0.00994736       0.006
   0.03978943 -0.03978943  0.00000000       0.003
   0.00000000  0.00000000  0.05968414       0.001
  -0.00994736  0.00994736  0.06963150       0.006
  -0.01989471  0.01989471  0.07957886       0.006
  -0.02984207  0.02984207  0.08952621       0.006
  -0.03978943  0.03978943  0.09947357       0.006
  -0.04973678  0.04973678  0.10942093       0.006
   0.09947357 -0.09947357 -0.03978943       0.006
   0.08952621 -0.08952621 -0.02984207       0.006
   0.07957886 -0.07957886 -0.01989471       0.006
   0.06963150 -0.06963150 -0.00994736       0.006
   0.05968414 -0.05968414  0.00000000       0.003
   0.00000000  0.00000000  0.07957886       0.001
  -0.00994736  0.00994736  0.08952621       0.006
  -0.01989471  0.01989471  0.09947357       0.006
  -0.02984207  0.02984207  0.10942093       0.006
  -0.03978943  0.03978943  0.11936828       0.006
   0.10942093 -0.10942093 -0.02984207       0.006
   0.09947357 -0.09947357 -0.01989471       0.006
   0.08952621 -0.08952621 -0.00994736       0.006
   0.07957886 -0.07957886  0.00000000       0.003
   0.00000000  0.00000000  0.09947357       0.001
  -0.00994736  0.00994736  0.10942093       0.006
  -0.01989471  0.01989471  0.11936828       0.006
  -0.02984207  0.02984207  0.12931564       0.006
   0.11936828 -0.11936828 -0.01989471       0.006
   0.10942093 -0.10942093 -0.00994736       0.006
   0.09947357 -0.09947357  0.00000000       0.003
   0.00000000  0.00000000  0.11936828       0.001
  -0.00994736  0.00994736  0.12931564       0.006
  -0.01989471  0.01989471  0.13926300       0.006
   0.12931564 -0.12931564 -0.00994736       0.006
   0.11936828 -0.11936828  0.00000000       0.003
   0.00000000  0.00000000  0.13926300       0.001
  -0.00994736  0.00994736  0.14921035       0.006
   0.13926300 -0.13926300  0.00000000       0.003
   0.00000000  0.00000000  0.15915771       0.001
   0.00000000  0.01989471  0.03978943       0.006
  -0.00994736  0.02984207  0.04973678       0.012
  -0.01989471  0.03978943  0.05968414       0.012
  -0.02984207  0.04973678  0.06963150       0.012
  -0.03978943  0.05968414  0.07957886       0.012
  -0.04973678  0.06963150  0.08952621       0.012
   0.09947357 -0.07957886 -0.05968414       0.006
   0.00000000  0.01989471  0.05968414       0.006
  -0.00994736  0.02984207  0.06963150       0.012
  -0.01989471  0.03978943  0.07957886       0.012
  -0.02984207  0.04973678  0.08952621       0.012
  -0.03978943  0.05968414  0.09947357       0.012
   0.10942093 -0.08952621 -0.04973678       0.012
   0.09947357 -0.07957886 -0.03978943       0.012
   0.08952621 -0.06963150 -0.02984207       0.012
   0.07957886 -0.05968414 -0.01989471       0.012
   0.06963150 -0.04973678 -0.00994736       0.012
   0.05968414 -0.03978943  0.00000000       0.006
   0.00000000  0.01989471  0.07957886       0.006
  -0.00994736  0.02984207  0.08952621       0.012
  -0.01989471  0.03978943  0.09947357       0.012
  -0.02984207  0.04973678  0.10942093       0.012
   0.11936828 -0.09947357 -0.03978943       0.012
   0.10942093 -0.08952621 -0.02984207       0.012
   0.09947357 -0.07957886 -0.01989471       0.012
   0.08952621 -0.06963150 -0.00994736       0.012
   0.07957886 -0.05968414  0.00000000       0.006
   0.00000000  0.01989471  0.09947357       0.006
  -0.00994736  0.02984207  0.10942093       0.012
  -0.01989471  0.03978943  0.11936828       0.012
   0.12931564 -0.10942093 -0.02984207       0.012
   0.11936828 -0.09947357 -0.01989471       0.012
   0.10942093 -0.08952621 -0.00994736       0.012
   0.09947357 -0.07957886  0.00000000       0.006
   0.00000000  0.01989471  0.11936828       0.006
  -0.00994736  0.02984207  0.12931564       0.012
   0.13926300 -0.11936828 -0.01989471       0.012
   0.12931564 -0.10942093 -0.00994736       0.012
   0.11936828 -0.09947357  0.00000000       0.006
   0.00000000  0.01989471  0.13926300       0.006
   0.14921035 -0.12931564 -0.00994736       0.012
   0.13926300 -0.11936828  0.00000000       0.006
   0.15915771 -0.13926300  0.00000000       0.003
   0.00000000  0.03978943  0.07957886       0.006
  -0.00994736  0.04973678  0.08952621       0.012
  -0.01989471  0.05968414  0.09947357       0.012
   0.12931564 -0.08952621 -0.04973678       0.012
   0.11936828 -0.07957886 -0.03978943       0.006
   0.00000000  0.03978943  0.09947357       0.006
  -0.00994736  0.04973678  0.10942093       0.012
   0.13926300 -0.09947357 -0.03978943       0.012
   0.12931564 -0.08952621 -0.02984207       0.012
   0.11936828 -0.07957886 -0.01989471       0.012
   0.10942093 -0.06963150 -0.00994736       0.012
   0.09947357 -0.05968414  0.00000000       0.006
   0.00000000  0.03978943  0.11936828       0.006
   0.14921035 -0.10942093 -0.02984207       0.012
   0.13926300 -0.09947357 -0.01989471       0.012
   0.12931564 -0.08952621 -0.00994736       0.012
   0.11936828 -0.07957886  0.00000000       0.006
   0.15915771 -0.11936828 -0.01989471       0.006
   0.14921035 -0.10942093 -0.00994736       0.012
   0.13926300 -0.09947357  0.00000000       0.006
   0.15915771 -0.11936828  0.00000000       0.003
   0.15915771 -0.09947357 -0.03978943       0.006
   0.14921035 -0.08952621 -0.02984207       0.012
   0.13926300 -0.07957886 -0.01989471       0.006
   0.15915771 -0.09947357 -0.01989471       0.006
   0.14921035 -0.08952621 -0.00994736       0.012
   0.13926300 -0.07957886  0.00000000       0.006
   0.15915771 -0.09947357  0.00000000       0.003
   0.15915771 -0.07957886  0.00000000       0.001
 
 k-points in reciprocal lattice and weights: KPOINTS                                 
   0.00000000  0.00000000  0.00000000       0.000
   0.06250000  0.00000000  0.00000000       0.002
   0.12500000  0.00000000  0.00000000       0.002
   0.18750000  0.00000000  0.00000000       0.002
   0.25000000  0.00000000  0.00000000       0.002
   0.31250000  0.00000000  0.00000000       0.002
   0.37500000  0.00000000  0.00000000       0.002
   0.43750000  0.00000000  0.00000000       0.002
   0.50000000  0.00000000  0.00000000       0.001
   0.06250000  0.06250000  0.00000000       0.001
   0.12500000  0.06250000  0.00000000       0.006
   0.18750000  0.06250000  0.00000000       0.006
   0.25000000  0.06250000  0.00000000       0.006
   0.31250000  0.06250000  0.00000000       0.006
   0.37500000  0.06250000  0.00000000       0.006
   0.43750000  0.06250000  0.00000000       0.006
   0.50000000  0.06250000  0.00000000       0.006
  -0.43750000  0.06250000  0.00000000       0.006
  -0.37500000  0.06250000  0.00000000       0.006
  -0.31250000  0.06250000  0.00000000       0.006
  -0.25000000  0.06250000  0.00000000       0.006
  -0.18750000  0.06250000  0.00000000       0.006
  -0.12500000  0.06250000  0.00000000       0.006
  -0.06250000  0.06250000  0.00000000       0.003
   0.12500000  0.12500000  0.00000000       0.001
   0.18750000  0.12500000  0.00000000       0.006
   0.25000000  0.12500000  0.00000000       0.006
   0.31250000  0.12500000  0.00000000       0.006
   0.37500000  0.12500000  0.00000000       0.006
   0.43750000  0.12500000  0.00000000       0.006
   0.50000000  0.12500000  0.00000000       0.006
  -0.43750000  0.12500000  0.00000000       0.006
  -0.37500000  0.12500000  0.00000000       0.006
  -0.31250000  0.12500000  0.00000000       0.006
  -0.25000000  0.12500000  0.00000000       0.006
  -0.18750000  0.12500000  0.00000000       0.006
  -0.12500000  0.12500000  0.00000000       0.003
   0.18750000  0.18750000  0.00000000       0.001
   0.25000000  0.18750000  0.00000000       0.006
   0.31250000  0.18750000  0.00000000       0.006
   0.37500000  0.18750000  0.00000000       0.006
   0.43750000  0.18750000  0.00000000       0.006
   0.50000000  0.18750000  0.00000000       0.006
  -0.43750000  0.18750000  0.00000000       0.006
  -0.37500000  0.18750000  0.00000000       0.006
  -0.31250000  0.18750000  0.00000000       0.006
  -0.25000000  0.18750000  0.00000000       0.006
  -0.18750000  0.18750000  0.00000000       0.003
   0.25000000  0.25000000  0.00000000       0.001
   0.31250000  0.25000000  0.00000000       0.006
   0.37500000  0.25000000  0.00000000       0.006
   0.43750000  0.25000000  0.00000000       0.006
   0.50000000  0.25000000  0.00000000       0.006
  -0.43750000  0.25000000  0.00000000       0.006
  -0.37500000  0.25000000  0.00000000       0.006
  -0.31250000  0.25000000  0.00000000       0.006
  -0.25000000  0.25000000  0.00000000       0.003
   0.31250000  0.31250000  0.00000000       0.001
   0.37500000  0.31250000  0.00000000       0.006
   0.43750000  0.31250000  0.00000000       0.006
   0.50000000  0.31250000  0.00000000       0.006
  -0.43750000  0.31250000  0.00000000       0.006
  -0.37500000  0.31250000  0.00000000       0.006
  -0.31250000  0.31250000  0.00000000       0.003
   0.37500000  0.37500000  0.00000000       0.001
   0.43750000  0.37500000  0.00000000       0.006
   0.50000000  0.37500000  0.00000000       0.006
  -0.43750000  0.37500000  0.00000000       0.006
  -0.37500000  0.37500000  0.00000000       0.003
   0.43750000  0.43750000  0.00000000       0.001
   0.50000000  0.43750000  0.00000000       0.006
  -0.43750000  0.43750000  0.00000000       0.003
   0.50000000  0.50000000  0.00000000       0.001
   0.18750000  0.12500000  0.06250000       0.006
   0.25000000  0.12500000  0.06250000       0.012
   0.31250000  0.12500000  0.06250000       0.012
   0.37500000  0.12500000  0.06250000       0.012
   0.43750000  0.12500000  0.06250000       0.012
   0.50000000  0.12500000  0.06250000       0.012
  -0.43750000  0.12500000  0.06250000       0.006
   0.25000000  0.18750000  0.06250000       0.006
   0.31250000  0.18750000  0.06250000       0.012
   0.37500000  0.18750000  0.06250000       0.012
   0.43750000  0.18750000  0.06250000       0.012
   0.50000000  0.18750000  0.06250000       0.012
  -0.43750000  0.18750000  0.06250000       0.012
  -0.37500000  0.18750000  0.06250000       0.012
  -0.31250000  0.18750000  0.06250000       0.012
  -0.25000000  0.18750000  0.06250000       0.012
  -0.18750000  0.18750000  0.06250000       0.012
  -0.12500000  0.18750000  0.06250000       0.006
   0.31250000  0.25000000  0.06250000       0.006
   0.37500000  0.25000000  0.06250000       0.012
   0.43750000  0.25000000  0.06250000       0.012
   0.50000000  0.25000000  0.06250000       0.012
  -0.43750000  0.25000000  0.06250000       0.012
  -0.37500000  0.25000000  0.06250000       0.012
  -0.31250000  0.25000000  0.06250000       0.012
  -0.25000000  0.25000000  0.06250000       0.012
  -0.18750000  0.25000000  0.06250000       0.006
   0.37500000  0.31250000  0.06250000       0.006
   0.43750000  0.31250000  0.06250000       0.012
   0.50000000  0.31250000  0.06250000       0.012
  -0.43750000  0.31250000  0.06250000       0.012
  -0.37500000  0.31250000  0.06250000       0.012
  -0.31250000  0.31250000  0.06250000       0.012
  -0.25000000  0.31250000  0.06250000       0.006
   0.43750000  0.37500000  0.06250000       0.006
   0.50000000  0.37500000  0.06250000       0.012
  -0.43750000  0.37500000  0.06250000       0.012
  -0.37500000  0.37500000  0.06250000       0.012
  -0.31250000  0.37500000  0.06250000       0.006
   0.50000000  0.43750000  0.06250000       0.006
  -0.43750000  0.43750000  0.06250000       0.012
  -0.37500000  0.43750000  0.06250000       0.006
  -0.43750000  0.50000000  0.06250000       0.003
   0.37500000  0.25000000  0.12500000       0.006
   0.43750000  0.25000000  0.12500000       0.012
   0.50000000  0.25000000  0.12500000       0.012
  -0.43750000  0.25000000  0.12500000       0.012
  -0.37500000  0.25000000  0.12500000       0.006
   0.43750000  0.31250000  0.12500000       0.006
   0.50000000  0.31250000  0.12500000       0.012
  -0.43750000  0.31250000  0.12500000       0.012
  -0.37500000  0.31250000  0.12500000       0.012
  -0.31250000  0.31250000  0.12500000       0.012
  -0.25000000  0.31250000  0.12500000       0.012
  -0.18750000  0.31250000  0.12500000       0.006
   0.50000000  0.37500000  0.12500000       0.006
  -0.43750000  0.37500000  0.12500000       0.012
  -0.37500000  0.37500000  0.12500000       0.012
  -0.31250000  0.37500000  0.12500000       0.012
  -0.25000000  0.37500000  0.12500000       0.006
  -0.43750000  0.43750000  0.12500000       0.006
  -0.37500000  0.43750000  0.12500000       0.012
  -0.31250000  0.43750000  0.12500000       0.006
  -0.37500000  0.50000000  0.12500000       0.003
  -0.43750000  0.37500000  0.18750000       0.006
  -0.37500000  0.37500000  0.18750000       0.012
  -0.31250000  0.37500000  0.18750000       0.006
  -0.37500000  0.43750000  0.18750000       0.006
  -0.31250000  0.43750000  0.18750000       0.012
  -0.25000000  0.43750000  0.18750000       0.006
  -0.31250000  0.50000000  0.18750000       0.003
  -0.25000000  0.50000000  0.25000000       0.001
 
 position of ions in fractional coordinates (direct lattice) 
   0.00000000  0.00000000  0.00000000
   0.50000038  0.50000038  0.50000038
 
 position of ions in cartesian coordinates  (Angst):
   0.00000000  0.00000000  0.00000000
   3.14154042  3.14154042  3.14154042
 


--------------------------------------------------------------------------------------------------------


 k-point  1 :   0.0000 0.0000 0.0000  plane waves:    1687
 k-point  2 :   0.0625 0.0000 0.0000  plane waves:    1663
 k-point  3 :   0.1250 0.0000 0.0000  plane waves:    1684
 k-point  4 :   0.1875 0.0000 0.0000  plane waves:    1666
 k-point  5 :   0.2500 0.0000 0.0000  plane waves:    1657
 k-point  6 :   0.3125 0.0000 0.0000  plane waves:    1652
 k-point  7 :   0.3750 0.0000 0.0000  plane waves:    1667
 k-point  8 :   0.4375 0.0000 0.0000  plane waves:    1679
 k-point  9 :   0.5000 0.0000 0.0000  plane waves:    1676
 k-point 10 :   0.0625 0.0625 0.0000  plane waves:    1671
 k-point 11 :   0.1250 0.0625 0.0000  plane waves:    1686
 k-point 12 :   0.1875 0.0625 0.0000  plane waves:    1670
 k-point 13 :   0.2500 0.0625 0.0000  plane waves:    1662
 k-point 14 :   0.3125 0.0625 0.0000  plane waves:    1663
 k-point 15 :   0.3750 0.0625 0.0000  plane waves:    1660
 k-point 16 :   0.4375 0.0625 0.0000  plane waves:    1665
 k-point 17 :   0.5000 0.0625 0.0000  plane waves:    1680
 k-point 18 :  -0.4375 0.0625 0.0000  plane waves:    1678
 k-point 19 :  -0.3750 0.0625 0.0000  plane waves:    1667
 k-point 20 :  -0.3125 0.0625 0.0000  plane waves:    1664
 k-point 21 :  -0.2500 0.0625 0.0000  plane waves:    1664
 k-point 22 :  -0.1875 0.0625 0.0000  plane waves:    1673
 k-point 23 :  -0.1250 0.0625 0.0000  plane waves:    1688
 k-point 24 :  -0.0625 0.0625 0.0000  plane waves:    1681
 k-point 25 :   0.1250 0.1250 0.0000  plane waves:    1683
 k-point 26 :   0.1875 0.1250 0.0000  plane waves:    1674
 k-point 27 :   0.2500 0.1250 0.0000  plane waves:    1670
 k-point 28 :   0.3125 0.1250 0.0000  plane waves:    1669
 k-point 29 :   0.3750 0.1250 0.0000  plane waves:    1671
 k-point 30 :   0.4375 0.1250 0.0000  plane waves:    1668
 k-point 31 :   0.5000 0.1250 0.0000  plane waves:    1673
 k-point 32 :  -0.4375 0.1250 0.0000  plane waves:    1675
 k-point 33 :  -0.3750 0.1250 0.0000  plane waves:    1668
 k-point 34 :  -0.3125 0.1250 0.0000  plane waves:    1660
 k-point 35 :  -0.2500 0.1250 0.0000  plane waves:    1663
 k-point 36 :  -0.1875 0.1250 0.0000  plane waves:    1669
 k-point 37 :  -0.1250 0.1250 0.0000  plane waves:    1683
 k-point 38 :   0.1875 0.1875 0.0000  plane waves:    1672
 k-point 39 :   0.2500 0.1875 0.0000  plane waves:    1672
 k-point 40 :   0.3125 0.1875 0.0000  plane waves:    1668
 k-point 41 :   0.3750 0.1875 0.0000  plane waves:    1664
 k-point 42 :   0.4375 0.1875 0.0000  plane waves:    1666
 k-point 43 :   0.5000 0.1875 0.0000  plane waves:    1677
 k-point 44 :  -0.4375 0.1875 0.0000  plane waves:    1683
 k-point 45 :  -0.3750 0.1875 0.0000  plane waves:    1671
 k-point 46 :  -0.3125 0.1875 0.0000  plane waves:    1665
 k-point 47 :  -0.2500 0.1875 0.0000  plane waves:    1666
 k-point 48 :  -0.1875 0.1875 0.0000  plane waves:    1664
 k-point 49 :   0.2500 0.2500 0.0000  plane waves:    1700
 k-point 50 :   0.3125 0.2500 0.0000  plane waves:    1679
 k-point 51 :   0.3750 0.2500 0.0000  plane waves:    1670
 k-point 52 :   0.4375 0.2500 0.0000  plane waves:    1668
 k-point 53 :   0.5000 0.2500 0.0000  plane waves:    1667
 k-point 54 :  -0.4375 0.2500 0.0000  plane waves:    1678
 k-point 55 :  -0.3750 0.2500 0.0000  plane waves:    1664
 k-point 56 :  -0.3125 0.2500 0.0000  plane waves:    1666
 k-point 57 :  -0.2500 0.2500 0.0000  plane waves:    1658
 k-point 58 :   0.3125 0.3125 0.0000  plane waves:    1676
 k-point 59 :   0.3750 0.3125 0.0000  plane waves:    1671
 k-point 60 :   0.4375 0.3125 0.0000  plane waves:    1667
 k-point 61 :   0.5000 0.3125 0.0000  plane waves:    1676
 k-point 62 :  -0.4375 0.3125 0.0000  plane waves:    1672
 k-point 63 :  -0.3750 0.3125 0.0000  plane waves:    1672
 k-point 64 :  -0.3125 0.3125 0.0000  plane waves:    1676
 k-point 65 :   0.3750 0.3750 0.0000  plane waves:    1672
 k-point 66 :   0.4375 0.3750 0.0000  plane waves:    1669
 k-point 67 :   0.5000 0.3750 0.0000  plane waves:    1671
 k-point 68 :  -0.4375 0.3750 0.0000  plane waves:    1674
 k-point 69 :  -0.3750 0.3750 0.0000  plane waves:    1666
 k-point 70 :   0.4375 0.4375 0.0000  plane waves:    1668
 k-point 71 :   0.5000 0.4375 0.0000  plane waves:    1677
 k-point 72 :  -0.4375 0.4375 0.0000  plane waves:    1676
 k-point 73 :   0.5000 0.5000 0.0000  plane waves:    1660
 k-point 74 :   0.1875 0.1250 0.0625  plane waves:    1677
 k-point 75 :   0.2500 0.1250 0.0625  plane waves:    1670
 k-point 76 :   0.3125 0.1250 0.0625  plane waves:    1666
 k-point 77 :   0.3750 0.1250 0.0625  plane waves:    1669
 k-point 78 :   0.4375 0.1250 0.0625  plane waves:    1668
 k-point 79 :   0.5000 0.1250 0.0625  plane waves:    1668
 k-point 80 :  -0.4375 0.1250 0.0625  plane waves:    1674
 k-point 81 :   0.2500 0.1875 0.0625  plane waves:    1674
 k-point 82 :   0.3125 0.1875 0.0625  plane waves:    1666
 k-point 83 :   0.3750 0.1875 0.0625  plane waves:    1665
 k-point 84 :   0.4375 0.1875 0.0625  plane waves:    1668
 k-point 85 :   0.5000 0.1875 0.0625  plane waves:    1660
 k-point 86 :  -0.4375 0.1875 0.0625  plane waves:    1674
 k-point 87 :  -0.3750 0.1875 0.0625  plane waves:    1673
 k-point 88 :  -0.3125 0.1875 0.0625  plane waves:    1668
 k-point 89 :  -0.2500 0.1875 0.0625  plane waves:    1668
 k-point 90 :  -0.1875 0.1875 0.0625  plane waves:    1669
 k-point 91 :  -0.1250 0.1875 0.0625  plane waves:    1669
 k-point 92 :   0.3125 0.2500 0.0625  plane waves:    1670
 k-point 93 :   0.3750 0.2500 0.0625  plane waves:    1671
 k-point 94 :   0.4375 0.2500 0.0625  plane waves:    1669
 k-point 95 :   0.5000 0.2500 0.0625  plane waves:    1663
 k-point 96 :  -0.4375 0.2500 0.0625  plane waves:    1670
 k-point 97 :  -0.3750 0.2500 0.0625  plane waves:    1675
 k-point 98 :  -0.3125 0.2500 0.0625  plane waves:    1672
 k-point 99 :  -0.2500 0.2500 0.0625  plane waves:    1665
 k-point ** :  -0.1875 0.2500 0.0625  plane waves:    1675
 k-point ** :   0.3750 0.3125 0.0625  plane waves:    1675
 k-point ** :   0.4375 0.3125 0.0625  plane waves:    1670
 k-point ** :   0.5000 0.3125 0.0625  plane waves:    1670
 k-point ** :  -0.4375 0.3125 0.0625  plane waves:    1668
 k-point ** :  -0.3750 0.3125 0.0625  plane waves:    1673
 k-point ** :  -0.3125 0.3125 0.0625  plane waves:    1670
 k-point ** :  -0.2500 0.3125 0.0625  plane waves:    1669
 k-point ** :   0.4375 0.3750 0.0625  plane waves:    1674
 k-point ** :   0.5000 0.3750 0.0625  plane waves:    1673
 k-point ** :  -0.4375 0.3750 0.0625  plane waves:    1675
 k-point ** :  -0.3750 0.3750 0.0625  plane waves:    1663
 k-point ** :  -0.3125 0.3750 0.0625  plane waves:    1676
 k-point ** :   0.5000 0.4375 0.0625  plane waves:    1672
 k-point ** :  -0.4375 0.4375 0.0625  plane waves:    1670
 k-point ** :  -0.3750 0.4375 0.0625  plane waves:    1670
 k-point ** :  -0.4375 0.5000 0.0625  plane waves:    1678
 k-point ** :   0.3750 0.2500 0.1250  plane waves:    1668
 k-point ** :   0.4375 0.2500 0.1250  plane waves:    1671
 k-point ** :   0.5000 0.2500 0.1250  plane waves:    1663
 k-point ** :  -0.4375 0.2500 0.1250  plane waves:    1666
 k-point ** :  -0.3750 0.2500 0.1250  plane waves:    1676
 k-point ** :   0.4375 0.3125 0.1250  plane waves:    1675
 k-point ** :   0.5000 0.3125 0.1250  plane waves:    1669
 k-point ** :  -0.4375 0.3125 0.1250  plane waves:    1669
 k-point ** :  -0.3750 0.3125 0.1250  plane waves:    1670
 k-point ** :  -0.3125 0.3125 0.1250  plane waves:    1669
 k-point ** :  -0.2500 0.3125 0.1250  plane waves:    1665
 k-point ** :  -0.1875 0.3125 0.1250  plane waves:    1667
 k-point ** :   0.5000 0.3750 0.1250  plane waves:    1662
 k-point ** :  -0.4375 0.3750 0.1250  plane waves:    1666
 k-point ** :  -0.3750 0.3750 0.1250  plane waves:    1671
 k-point ** :  -0.3125 0.3750 0.1250  plane waves:    1670
 k-point ** :  -0.2500 0.3750 0.1250  plane waves:    1665
 k-point ** :  -0.4375 0.4375 0.1250  plane waves:    1668
 k-point ** :  -0.3750 0.4375 0.1250  plane waves:    1666
 k-point ** :  -0.3125 0.4375 0.1250  plane waves:    1668
 k-point ** :  -0.3750 0.5000 0.1250  plane waves:    1670
 k-point ** :  -0.4375 0.3750 0.1875  plane waves:    1674
 k-point ** :  -0.3750 0.3750 0.1875  plane waves:    1672
 k-point ** :  -0.3125 0.3750 0.1875  plane waves:    1668
 k-point ** :  -0.3750 0.4375 0.1875  plane waves:    1665
 k-point ** :  -0.3125 0.4375 0.1875  plane waves:    1665
 k-point ** :  -0.2500 0.4375 0.1875  plane waves:    1666
 k-point ** :  -0.3125 0.5000 0.1875  plane waves:    1664
 k-point ** :  -0.2500 0.5000 0.2500  plane waves:    1648

 maximum number of plane-waves:      1700
 maximum index in each direction: 
   IXMAX=    8   IYMAX=    8   IZMAX=    8
   IXMIN=   -8   IYMIN=   -8   IZMIN=   -8

 WARNING: aliasing errors must be expected set NGX to  34 to avoid them
 WARNING: aliasing errors must be expected set NGY to  34 to avoid them
 WARNING: aliasing errors must be expected set NGZ to  34 to avoid them
 aliasing errors are usually negligible using standard VASP settings
 and one can safely disregard these warnings

 total amount of memory used by VASP on root node   220867. kBytes
========================================================================

   base      :      30000. kBytes
   nonl-proj :     126262. kBytes
   grid      :       3607. kBytes
   one-center:         98. kBytes
   wavefun   :      60900. kBytes
 
 Broyden mixing: mesh for mixing (old mesh)
   NGX = 17   NGY = 17   NGZ = 17
  (NGX  = 36   NGY  = 36   NGZ  = 36)
  gives a total of   4913 points

 initial charge density was supplied:
 charge density of overlapping atoms calculated
 number of electron      22.0000000 magnetization 
 keeping initial charge density in first step


--------------------------------------------------------------------------------------------------------


 Maximum index for augmentation-charges         5281 (set IRDMAX)


--------------------------------------------------------------------------------------------------------


 First call to EWALD:  gamma=   0.448
 Maximum number of real-space cells 3x 3x 3
 Maximum number of reciprocal cells 3x 3x 3

    FEWALD:  cpu time    0.00: real time    0.00


----------------------------------------- Iteration    1(   1)  ---------------------------------------


    POTLOK:  cpu time    0.06: real time    0.06
    SETDIJ:  cpu time    0.01: real time    0.01
     EDDAV:  cpu time   25.23: real time   25.36
 BZINTS: Fermi energy: 17.811865; 22.000000 electrons
         Band energy: 123.316197;  BLOECHL correction: -0.227614
       DOS:  cpu time    0.04: real time    0.04
    --------------------------------------------
      LOOP:  cpu time   25.33: real time   25.46

 eigenvalue-minimisations  :  4350
 total energy-change (2. order) : 0.2045673E+03  (-0.9612202E+03)
 number of electron      22.0000000 magnetization 
 augmentation part       22.0000000 magnetization 

 Free energy of the ion-electron system (eV)
  ---------------------------------------------------
  alpha Z        PSCENC =       129.17669171
  Ewald energy   TEWEN  =     -1573.63498421
  -1/2 Hartree   DENC   =      -387.89534663
  -exchange  EXHF       =         0.00000000
  -V(xc)+E(xc)   XCENC  =       -46.95124211
  PAW double counting   =      1356.25396710    -1245.44542295
  entropy T*S    EENTRO =         0.00000000
  eigenvalues    EBANDS =       123.31619668
  atomic energy  EATOM  =      1849.74745785
  ---------------------------------------------------
  free energy    TOTEN  =       204.56731744 eV

  energy without entropy =      204.56731744  energy(sigma->0) =      204.56731744


--------------------------------------------------------------------------------------------------------




----------------------------------------- Iteration    1(   2)  ---------------------------------------


     EDDAV:  cpu time   27.77: real time   27.89
 BZINTS: Fermi energy:  7.956943; 22.000000 electrons
         Band energy: -68.180795;  BLOECHL correction: -0.131660
       DOS:  cpu time    0.04: real time    0.04
    --------------------------------------------
      LOOP:  cpu time   27.81: real time   27.93

 eigenvalue-minimisations  :  4988
 total energy-change (2. order) :-0.1914970E+03  (-0.1884670E+03)
 number of electron      22.0000000 magnetization 
 augmentation part       22.0000000 magnetization 

 Free energy of the ion-electron system (eV)
  ---------------------------------------------------
  alpha Z        PSCENC =       129.17669171
  Ewald energy   TEWEN  =     -1573.63498421
  -1/2 Hartree   DENC   =      -387.89534663
  -exchange  EXHF       =         0.00000000
  -V(xc)+E(xc)   XCENC  =       -46.95124211
  PAW double counting   =      1356.25396710    -1245.44542295
  entropy T*S    EENTRO =         0.00000000
  eigenvalues    EBANDS =       -68.18079456
  atomic energy  EATOM  =      1849.74745785
  ---------------------------------------------------
  free energy    TOTEN  =        13.07032620 eV

  energy without entropy =       13.07032620  energy(sigma->0) =       13.07032620


--------------------------------------------------------------------------------------------------------




----------------------------------------- Iteration    1(   3)  ---------------------------------------


     EDDAV:  cpu time   33.12: real time   33.33
 BZINTS: Fermi energy:  5.991108; 22.000000 electrons
         Band energy: -87.809112;  BLOECHL correction: -0.013760
       DOS:  cpu time    0.03: real time    0.04
    --------------------------------------------
      LOOP:  cpu time   33.15: real time   33.36

 eigenvalue-minimisations  :  6317
 total energy-change (2. order) :-0.1962832E+02  (-0.1945829E+02)
 number of electron      22.0000000 magnetization 
 augmentation part       22.0000000 magnetization 

 Free energy of the ion-electron system (eV)
  ---------------------------------------------------
  alpha Z        PSCENC =       129.17669171
  Ewald energy   TEWEN  =     -1573.63498421
  -1/2 Hartree   DENC   =      -387.89534663
  -exchange  EXHF       =         0.00000000
  -V(xc)+E(xc)   XCENC  =       -46.95124211
  PAW double counting   =      1356.25396710    -1245.44542295
  entropy T*S    EENTRO =         0.00000000
  eigenvalues    EBANDS =       -87.80911229
  atomic energy  EATOM  =      1849.74745785
  ---------------------------------------------------
  free energy    TOTEN  =        -6.55799153 eV

  energy without entropy =       -6.55799153  energy(sigma->0) =       -6.55799153


--------------------------------------------------------------------------------------------------------




----------------------------------------- Iteration    1(   4)  ---------------------------------------


     EDDAV:  cpu time   41.40: real time   41.48
 BZINTS: Fermi energy:  5.930570; 22.000000 electrons
         Band energy: -88.758363;  BLOECHL correction: -0.010689
       DOS:  cpu time    0.04: real time    0.04
    --------------------------------------------
      LOOP:  cpu time   41.44: real time   41.52

 eigenvalue-minimisations  :  8111
 total energy-change (2. order) :-0.9492506E+00  (-0.9474587E+00)
 number of electron      22.0000000 magnetization 
 augmentation part       22.0000000 magnetization 

 Free energy of the ion-electron system (eV)
  ---------------------------------------------------
  alpha Z        PSCENC =       129.17669171
  Ewald energy   TEWEN  =     -1573.63498421
  -1/2 Hartree   DENC   =      -387.89534663
  -exchange  EXHF       =         0.00000000
  -V(xc)+E(xc)   XCENC  =       -46.95124211
  PAW double counting   =      1356.25396710    -1245.44542295
  entropy T*S    EENTRO =         0.00000000
  eigenvalues    EBANDS =       -88.75836294
  atomic energy  EATOM  =      1849.74745785
  ---------------------------------------------------
  free energy    TOTEN  =        -7.50724218 eV

  energy without entropy =       -7.50724218  energy(sigma->0) =       -7.50724218


--------------------------------------------------------------------------------------------------------




----------------------------------------- Iteration    1(   5)  ---------------------------------------


     EDDAV:  cpu time   33.09: real time   33.16
 BZINTS: Fermi energy:  5.929665; 22.000000 electrons
         Band energy: -88.768234;  BLOECHL correction: -0.010632
       DOS:  cpu time    0.04: real time    0.04
    CHARGE:  cpu time    2.75: real time    2.76
    MIXING:  cpu time    0.00: real time    0.00
    --------------------------------------------
      LOOP:  cpu time   35.88: real time   35.96

 eigenvalue-minimisations  :  6142
 total energy-change (2. order) :-0.9871052E-02  (-0.9890900E-02)
 number of electron      22.0000103 magnetization 
 augmentation part        2.8569154 magnetization 

 Broyden mixing:
  rms(total) = 0.52065E+00    rms(broyden)= 0.52065E+00
  rms(prec ) = 0.14204E+01
  weight for this iteration     100.00

 Free energy of the ion-electron system (eV)
  ---------------------------------------------------
  alpha Z        PSCENC =       129.17669171
  Ewald energy   TEWEN  =     -1573.63498421
  -1/2 Hartree   DENC   =      -387.89534663
  -exchange  EXHF       =         0.00000000
  -V(xc)+E(xc)   XCENC  =       -46.95124211
  PAW double counting   =      1356.25396710    -1245.44542295
  entropy T*S    EENTRO =         0.00000000
  eigenvalues    EBANDS =       -88.76823399
  atomic energy  EATOM  =      1849.74745785
  ---------------------------------------------------
  free energy    TOTEN  =        -7.51711324 eV

  energy without entropy =       -7.51711324  energy(sigma->0) =       -7.51711324


--------------------------------------------------------------------------------------------------------




----------------------------------------- Iteration    1(   6)  ---------------------------------------


    POTLOK:  cpu time    0.05: real time    0.05
    SETDIJ:  cpu time    0.01: real time    0.01
    EDDIAG:  cpu time    7.24: real time    7.25
  RMM-DIIS:  cpu time   22.90: real time   22.94
    ORTHCH:  cpu time    0.13: real time    0.13
 BZINTS: Fermi energy:  5.830392; 22.000000 electrons
         Band energy:-104.734222;  BLOECHL correction: -0.008407
       DOS:  cpu time    0.03: real time    0.03
    CHARGE:  cpu time    2.76: real time    2.77
    MIXING:  cpu time    0.00: real time    0.00
    --------------------------------------------
      LOOP:  cpu time   33.13: real time   33.19

 eigenvalue-minimisations  :  4504
 total energy-change (2. order) : 0.4849068E+00  (-0.4085779E+00)
 number of electron      22.0000111 magnetization 
 augmentation part        3.2515014 magnetization 

 Broyden mixing:
  rms(total) = 0.11939E+00    rms(broyden)= 0.11938E+00
  rms(prec ) = 0.28383E+00
  weight for this iteration     100.00

 eigenvalues of (default mixing * dielectric matrix)
  average eigenvalue GAMMA=   0.9453
  0.9453

 Free energy of the ion-electron system (eV)
  ---------------------------------------------------
  alpha Z        PSCENC =       129.17669171
  Ewald energy   TEWEN  =     -1573.63498421
  -1/2 Hartree   DENC   =      -368.90879698
  -exchange  EXHF       =         0.00000000
  -V(xc)+E(xc)   XCENC  =       -47.45018483
  PAW double counting   =      1342.60544384    -1233.83361138
  entropy T*S    EENTRO =         0.00000000
  eigenvalues    EBANDS =      -104.73422247
  atomic energy  EATOM  =      1849.74745785
  ---------------------------------------------------
  free energy    TOTEN  =        -7.03220647 eV

  energy without entropy =       -7.03220647  energy(sigma->0) =       -7.03220647


--------------------------------------------------------------------------------------------------------




----------------------------------------- Iteration    1(   7)  ---------------------------------------


    POTLOK:  cpu time    0.05: real time    0.05
    SETDIJ:  cpu time    0.01: real time    0.01
    EDDIAG:  cpu time    7.23: real time    7.24
  RMM-DIIS:  cpu time   25.98: real time   26.03
    ORTHCH:  cpu time    0.13: real time    0.13
 BZINTS: Fermi energy:  5.854769; 22.000000 electrons
         Band energy:-101.803300;  BLOECHL correction: -0.008694
       DOS:  cpu time    0.04: real time    0.04
    CHARGE:  cpu time    2.76: real time    2.77
    MIXING:  cpu time    0.00: real time    0.00
    --------------------------------------------
      LOOP:  cpu time   36.21: real time   36.28

 eigenvalue-minimisations  :  5196
 total energy-change (2. order) : 0.5037567E-01  (-0.1325350E-01)
 number of electron      22.0000110 magnetization 
 augmentation part        3.1930366 magnetization 

 Broyden mixing:
  rms(total) = 0.70580E-01    rms(broyden)= 0.70580E-01
  rms(prec ) = 0.15437E+00
  weight for this iteration     100.00

 eigenvalues of (default mixing * dielectric matrix)
  average eigenvalue GAMMA=   1.6083
  0.8698  2.3467

 Free energy of the ion-electron system (eV)
  ---------------------------------------------------
  alpha Z        PSCENC =       129.17669171
  Ewald energy   TEWEN  =     -1573.63498421
  -1/2 Hartree   DENC   =      -370.41271143
  -exchange  EXHF       =         0.00000000
  -V(xc)+E(xc)   XCENC  =       -47.36473737
  PAW double counting   =      1359.26119154    -1251.95143887
  entropy T*S    EENTRO =         0.00000000
  eigenvalues    EBANDS =      -101.80330001
  atomic energy  EATOM  =      1849.74745785
  ---------------------------------------------------
  free energy    TOTEN  =        -6.98183080 eV

  energy without entropy =       -6.98183080  energy(sigma->0) =       -6.98183080


--------------------------------------------------------------------------------------------------------




----------------------------------------- Iteration    1(   8)  ---------------------------------------


    POTLOK:  cpu time    0.05: real time    0.05
    SETDIJ:  cpu time    0.01: real time    0.01
    EDDIAG:  cpu time    7.27: real time    7.28
  RMM-DIIS:  cpu time   25.94: real time   25.99
    ORTHCH:  cpu time    0.13: real time    0.13
 BZINTS: Fermi energy:  5.876254; 22.000000 electrons
         Band energy:-100.493571;  BLOECHL correction: -0.009046
       DOS:  cpu time    0.04: real time    0.04
    CHARGE:  cpu time    2.76: real time    2.76
    MIXING:  cpu time    0.00: real time    0.00
    --------------------------------------------
      LOOP:  cpu time   36.20: real time   36.27

 eigenvalue-minimisations  :  5106
 total energy-change (2. order) : 0.5607411E-02  (-0.7490097E-02)
 number of electron      22.0000109 magnetization 
 augmentation part        3.1450677 magnetization 

 Broyden mixing:
  rms(total) = 0.35288E-01    rms(broyden)= 0.35288E-01
  rms(prec ) = 0.10142E+00
  weight for this iteration     100.00

 eigenvalues of (default mixing * dielectric matrix)
  average eigenvalue GAMMA=   1.4579
  2.4754  0.9491  0.9491

 Free energy of the ion-electron system (eV)
  ---------------------------------------------------
  alpha Z        PSCENC =       129.17669171
  Ewald energy   TEWEN  =     -1573.63498421
  -1/2 Hartree   DENC   =      -369.33612946
  -exchange  EXHF       =         0.00000000
  -V(xc)+E(xc)   XCENC  =       -47.32476937
  PAW double counting   =      1383.57408627    -1278.68500505
  entropy T*S    EENTRO =         0.00000000
  eigenvalues    EBANDS =      -100.49357112
  atomic energy  EATOM  =      1849.74745785
  ---------------------------------------------------
  free energy    TOTEN  =        -6.97622339 eV

  energy without entropy =       -6.97622339  energy(sigma->0) =       -6.97622339


--------------------------------------------------------------------------------------------------------




----------------------------------------- Iteration    1(   9)  ---------------------------------------


    POTLOK:  cpu time    0.05: real time    0.06
    SETDIJ:  cpu time    0.01: real time    0.01
    EDDIAG:  cpu time    7.28: real time    7.29
  RMM-DIIS:  cpu time   27.10: real time   27.15
    ORTHCH:  cpu time    0.13: real time    0.13
 BZINTS: Fermi energy:  5.869488; 22.000000 electrons
         Band energy:-101.683288;  BLOECHL correction: -0.008735
       DOS:  cpu time    0.03: real time    0.04
    CHARGE:  cpu time    2.76: real time    2.76
    MIXING:  cpu time    0.00: real time    0.00
    --------------------------------------------
      LOOP:  cpu time   37.37: real time   37.44

 eigenvalue-minimisations  :  5365
 total energy-change (2. order) : 0.4922695E-02  (-0.2361863E-02)
 number of electron      22.0000110 magnetization 
 augmentation part        3.1670135 magnetization 

 Broyden mixing:
  rms(total) = 0.62776E-02    rms(broyden)= 0.62771E-02
  rms(prec ) = 0.14415E-01
  weight for this iteration     100.00

 eigenvalues of (default mixing * dielectric matrix)
  average eigenvalue GAMMA=   1.3429
  2.3011  1.2108  0.9299  0.9299

 Free energy of the ion-electron system (eV)
  ---------------------------------------------------
  alpha Z        PSCENC =       129.17669171
  Ewald energy   TEWEN  =     -1573.63498421
  -1/2 Hartree   DENC   =      -368.29583016
  -exchange  EXHF       =         0.00000000
  -V(xc)+E(xc)   XCENC  =       -47.36136872
  PAW double counting   =      1380.92015527    -1275.84013468
  entropy T*S    EENTRO =         0.00000000
  eigenvalues    EBANDS =      -101.68328775
  atomic energy  EATOM  =      1849.74745785
  ---------------------------------------------------
  free energy    TOTEN  =        -6.97130069 eV

  energy without entropy =       -6.97130069  energy(sigma->0) =       -6.97130069


--------------------------------------------------------------------------------------------------------




----------------------------------------- Iteration    1(  10)  ---------------------------------------


    POTLOK:  cpu time    0.05: real time    0.05
    SETDIJ:  cpu time    0.01: real time    0.01
    EDDIAG:  cpu time    7.27: real time    7.28
  RMM-DIIS:  cpu time   30.21: real time   30.27
    ORTHCH:  cpu time    0.13: real time    0.13
 BZINTS: Fermi energy:  5.870688; 22.000000 electrons
         Band energy:-101.644107;  BLOECHL correction: -0.008729
       DOS:  cpu time    0.04: real time    0.04
    CHARGE:  cpu time    2.76: real time    2.77
    MIXING:  cpu time    0.00: real time    0.00
    --------------------------------------------
      LOOP:  cpu time   40.48: real time   40.56

 eigenvalue-minimisations  :  6069
 total energy-change (2. order) :-0.2647192E-03  (-0.3230073E-03)
 number of electron      22.0000110 magnetization 
 augmentation part        3.1701307 magnetization 

 Broyden mixing:
  rms(total) = 0.54612E-02    rms(broyden)= 0.54611E-02
  rms(prec ) = 0.18266E-01
  weight for this iteration     100.00

 eigenvalues of (default mixing * dielectric matrix)
  average eigenvalue GAMMA=   1.5827
  2.4816  2.4816  0.9811  0.9811  0.9883

 Free energy of the ion-electron system (eV)
  ---------------------------------------------------
  alpha Z        PSCENC =       129.17669171
  Ewald energy   TEWEN  =     -1573.63498421
  -1/2 Hartree   DENC   =      -368.50258427
  -exchange  EXHF       =         0.00000000
  -V(xc)+E(xc)   XCENC  =       -47.36801625
  PAW double counting   =      1381.34460682    -1276.09063033
  entropy T*S    EENTRO =         0.00000000
  eigenvalues    EBANDS =      -101.64410672
  atomic energy  EATOM  =      1849.74745785
  ---------------------------------------------------
  free energy    TOTEN  =        -6.97156541 eV

  energy without entropy =       -6.97156541  energy(sigma->0) =       -6.97156541


--------------------------------------------------------------------------------------------------------




----------------------------------------- Iteration    1(  11)  ---------------------------------------


    POTLOK:  cpu time    0.05: real time    0.05
    SETDIJ:  cpu time    0.01: real time    0.01
    EDDIAG:  cpu time    7.27: real time    7.28
WARNING in EDDRMM: call to ZHEGV failed, returncode =   6  3 11
  RMM-DIIS:  cpu time   24.96: real time   25.01
    ORTHCH:  cpu time    0.13: real time    0.13
 BZINTS: Fermi energy:  5.871768; 22.000000 electrons
         Band energy:-101.539209;  BLOECHL correction: -0.008788
       DOS:  cpu time    0.03: real time    0.03
    --------------------------------------------
[...]
      3      -9.6797      2.00000
      4      -9.6640      2.00000
      5      -0.1826      2.00000
      6      -0.0544      2.00000
      7       0.0520      2.00000
      8       0.2779      2.00000
      9       0.3402      2.00000
     10       2.2920      2.00000
     11       5.8694      1.75294
     12       6.2075      0.00000
     13       6.9293      0.00000
     14       8.6516      0.00000
     15       9.6899      0.00000

 k-point 138 :      -0.4375    0.3750    0.1875
  band No.  band energies     occupation 
      1     -29.6771      2.00000
      2      -9.8909      2.00000
      3      -9.7006      2.00000
      4      -9.6266      2.00000
      5      -0.0321      2.00000
      6      -0.0305      2.00000
      7       0.1941      2.00000
      8       0.2189      2.00000
      9       0.3002      2.00000
     10       2.8291      2.00000
     11       4.8633      2.00000
     12       5.8344      1.69984
     13       6.6727      0.00000
     14       8.5704      0.00000
     15       9.3642      0.00000

 k-point 139 :      -0.3750    0.3750    0.1875
  band No.  band energies     occupation 
      1     -29.6756      2.00000
      2      -9.8728      2.00000
      3      -9.7420      2.00000
      4      -9.6449      2.00000
      5      -0.0172      2.00000
      6       0.0305      2.00000
      7       0.1606      2.00000
      8       0.1944      2.00000
      9       0.3149      2.00000
     10       2.9624      2.00000
     11       4.8870      2.00000
     12       5.8593      1.11037
     13       6.4740      0.00000
     14       8.7850      0.00000
     15       9.2070      0.00000

 k-point 140 :      -0.3125    0.3750    0.1875
  band No.  band energies     occupation 
      1     -29.6751      2.00000
      2      -9.8602      2.00000
      3      -9.7627      2.00000
      4      -9.6514      2.00000
      5      -0.0084      2.00000
      6       0.0950      2.00000
      7       0.1017      2.00000
      8       0.1853      2.00000
      9       0.3201      2.00000
     10       3.0139      2.00000
     11       4.8895      2.00000
     12       5.9192     -0.12368
     13       6.3511      0.00000
     14       8.8012      0.00000
     15       9.2694      0.00000

 k-point 141 :      -0.3750    0.4375    0.1875
  band No.  band energies     occupation 
      1     -29.6750      2.00000
      2      -9.8695      2.00000
      3      -9.7252      2.00000
      4      -9.6680      2.00000
      5      -0.0485      2.00000
      6      -0.0380      2.00000
      7       0.1434      2.00000
      8       0.2017      2.00000
      9       0.3307      2.00000
     10       2.7157      2.00000
     11       5.4268      2.00000
     12       5.8278      1.42090
     13       6.5033      0.00000
     14       8.8332      0.00000
     15       9.3986      0.00000

 k-point 142 :      -0.3125    0.4375    0.1875
  band No.  band energies     occupation 
      1     -29.6744      2.00000
      2      -9.8333      2.00000
      3      -9.7704      2.00000
      4      -9.6784      2.00000
      5      -0.0370      2.00000
      6       0.0202      2.00000
      7       0.1440      2.00000
      8       0.1553      2.00000
      9       0.3349      2.00000
     10       2.8535      2.00000
     11       5.3948      2.00000
     12       5.8915      0.05565
     13       6.1772     -0.00001
     14       9.0005      0.00000
     15       9.3415      0.00000

 k-point 143 :      -0.2500    0.4375    0.1875
  band No.  band energies     occupation 
      1     -29.6746      2.00000
      2      -9.8266      2.00000
      3      -9.7862      2.00000
      4      -9.6683      2.00000
      5      -0.0303      2.00000
      6       0.0839      2.00000
      7       0.0940      2.00000
      8       0.1727      2.00000
      9       0.3293      2.00000
     10       2.9487      2.00000
     11       5.1635      2.00000
     12       5.8574      1.13147
     13       6.2576     -0.00001
     14       9.0658      0.00000
     15       9.1197      0.00000

 k-point 144 :      -0.3125    0.5000    0.1875
  band No.  band energies     occupation 
      1     -29.6742      2.00000
      2      -9.8552      2.00000
      3      -9.7337      2.00000
      4      -9.6881      2.00000
      5      -0.0548      2.00000
      6      -0.0475      2.00000
      7       0.1258      2.00000
      8       0.1954      2.00000
      9       0.3402      2.00000
     10       2.6665      2.00000
     11       5.8267      2.00000
     12       6.0087     -0.07930
     13       6.0390      0.00000
     14       8.9679      0.00000
     15       9.5038      0.00000

 k-point 145 :      -0.2500    0.5000    0.2500
  band No.  band energies     occupation 
      1     -29.6741      2.00000
      2      -9.7955      2.00000
      3      -9.7955      2.00000
      4      -9.6980      2.00000
      5      -0.0453      2.00000
      6       0.0797      2.00000
      7       0.0797      2.00000
      8       0.1540      2.00000
      9       0.3402      2.00000
     10       2.8836      2.00000
     11       5.6359      2.00000
     12       5.8699      0.47566
     13       5.8699      0.00007
     14       9.2663      0.00000
     15       9.2664      0.00000


--------------------------------------------------------------------------------------------------------


 soft charge-density along one line, spin component           1
         0         1         2         3         4         5         6         7         8         9
x    18.8299    0.0000    3.8492    0.0000    1.4156    0.0000    0.2151    0.0000   -0.2042    0.0000
x    -0.0151    0.0000    0.0220    0.0000   -0.0060    0.0000    0.0002    0.0000    0.0002    0.0000
x     0.0000    0.0000    0.0000    0.0000    0.0000    0.0000    0.0000    0.0000    0.0000    0.0000
y    18.8299    0.0000    3.2229    0.0000    1.4482    0.0000    0.2636    0.0000   -0.1804    0.0000
y    -0.0141    0.0000    0.0230    0.0000   -0.0061    0.0000    0.0003    0.0000    0.0002    0.0000
y     0.0000    0.0000    0.0000    0.0000    0.0000    0.0000    0.0000    0.0000    0.0000    0.0000
z    18.8299    0.0000    3.0280    0.0000    1.5114    0.0000    0.3141    0.0000   -0.1579    0.0000
z    -0.0110    0.0000    0.0231    0.0000   -0.0060    0.0000    0.0003    0.0000    0.0002    0.0000
z     0.0000    0.0000    0.0000    0.0000    0.0000    0.0000    0.0000    0.0000    0.0000    0.0000
 total charge-density along one line
x    22.0000    0.0000   -2.7341    0.0000    3.2329    0.0000   -1.2013    0.0000    0.0156    0.0000
x     0.0168    0.0000    0.0153    0.0000   -0.0124    0.0000    0.0008    0.0000    0.0017    0.0000
x     0.0003    0.0000   -0.0002    0.0000   -0.0003    0.0000   -0.0001    0.0000    0.0001    0.0000
x     0.0001    0.0000    0.0000    0.0000    0.0000    0.0000    0.0000    0.0000
y    22.0000    0.0000   -2.7341    0.0000    3.2329    0.0000   -1.2013    0.0000    0.0156    0.0000
y     0.0168    0.0000    0.0153    0.0000   -0.0124    0.0000    0.0008    0.0000    0.0017    0.0000
y     0.0003    0.0000   -0.0002    0.0000   -0.0003    0.0000   -0.0001    0.0000    0.0001    0.0000
y     0.0001    0.0000    0.0000    0.0000    0.0000    0.0000    0.0000    0.0000
z    22.0000    0.0000   -2.7341    0.0000    3.2329    0.0000   -1.2013    0.0000    0.0156    0.0000
z     0.0168    0.0000    0.0153    0.0000   -0.0124    0.0000    0.0008    0.0000    0.0017    0.0000
z     0.0003    0.0000   -0.0002    0.0000   -0.0003    0.0000   -0.0001    0.0000    0.0001    0.0000
z     0.0001    0.0000    0.0000    0.0000    0.0000    0.0000    0.0000    0.0000
 
 pseudopotential strength for first ion, spin component:           1
 33.625  -4.815   0.000   0.000   0.000   0.000   0.000   0.000
 -4.815  -5.558   0.000   0.000   0.000   0.000   0.000   0.000
  0.000   0.000  10.197   0.000   0.000   0.027   0.000   0.000
  0.000   0.000   0.000  10.197   0.000   0.000   0.027   0.000
  0.000   0.000   0.000   0.000  10.197   0.000   0.000   0.027
  0.000   0.000   0.027   0.000   0.000   0.088   0.000   0.000
  0.000   0.000   0.000   0.027   0.000   0.000   0.088   0.000
  0.000   0.000   0.000   0.000   0.027   0.000   0.000   0.088
  0.000   0.000   0.000   0.000   0.000   0.000   0.000   0.000
  0.000   0.000   0.000   0.000   0.000   0.000   0.000   0.000
  0.000   0.000   0.000   0.000   0.000   0.000   0.000   0.000
  0.000   0.000   0.000   0.000   0.000   0.000   0.000   0.000
  0.000   0.000   0.000   0.000   0.000   0.000   0.000   0.000
  0.000   0.000   0.000   0.000   0.000   0.000   0.000   0.000
  0.000   0.000   0.000   0.000   0.000   0.000   0.000   0.000
  0.000   0.000   0.000   0.000   0.000   0.000   0.000   0.000
  0.000   0.000   0.000   0.000   0.000   0.000   0.000   0.000
  0.000   0.000   0.000   0.000   0.000   0.000   0.000   0.000
  0.000   0.000  -0.004   0.000   0.000   0.000   0.000   0.000
  0.000   0.000   0.000   0.000   0.000   0.000   0.000   0.000
  0.000   0.000  -0.003   0.000   0.000   0.000   0.000   0.000
  0.000   0.000   0.000   0.005   0.000   0.000   0.000   0.000
  0.000   0.000   0.000   0.000  -0.003   0.000   0.000   0.000
  0.000   0.000   0.000   0.000   0.000   0.000   0.000   0.000
  0.000   0.000   0.000   0.000   0.004   0.000   0.000   0.000
  0.000   0.000  -0.001   0.000   0.000   0.000   0.000   0.000
  0.000   0.000   0.000   0.000   0.000   0.000   0.000   0.000
  0.000   0.000  -0.001   0.000   0.000   0.000   0.000   0.000
  0.000   0.000   0.000   0.001   0.000   0.000   0.000   0.000
  0.000   0.000   0.000   0.000  -0.001   0.000   0.000   0.000
  0.000   0.000   0.000   0.000   0.000   0.000   0.000   0.000
  0.000   0.000   0.000   0.000   0.001   0.000   0.000   0.000
 total augmentation occupancy for first ion, spin component:           1
  2.620  -1.007   0.000   0.000   0.000   0.000   0.000   0.000   0.000   0.000   0.000   0.000   0.000   0.000   0.000   0.000
 -1.007   1.637   0.000   0.000   0.000   0.000   0.000   0.000   0.000   0.000   0.000   0.000   0.000   0.000   0.000   0.000
  0.000   0.000   2.036   0.000   0.000  -0.104   0.000   0.000   0.000   0.000   0.000   0.000   0.000   0.000   0.000   0.000
  0.000   0.000   0.000   2.036   0.000   0.000  -0.104   0.000   0.000   0.000   0.000   0.000   0.000   0.000   0.000   0.000
  0.000   0.000   0.000   0.000   2.036   0.000   0.000  -0.104   0.000   0.000   0.000   0.000   0.000   0.000   0.000   0.000
  0.000   0.000  -0.104   0.000   0.000   0.300   0.000   0.000   0.000   0.000   0.000   0.000   0.000   0.000   0.000   0.000
  0.000   0.000   0.000  -0.104   0.000   0.000   0.300   0.000   0.000   0.000   0.000   0.000   0.000   0.000   0.000   0.000
  0.000   0.000   0.000   0.000  -0.104   0.000   0.000   0.300   0.000   0.000   0.000   0.000   0.000   0.000   0.000   0.000
  0.000   0.000   0.000   0.000   0.000   0.000   0.000   0.000   0.192   0.000   0.000   0.000   0.000  -0.080   0.000   0.000
  0.000   0.000   0.000   0.000   0.000   0.000   0.000   0.000   0.000   0.192   0.000   0.000   0.000   0.000  -0.080   0.000
  0.000   0.000   0.000   0.000   0.000   0.000   0.000   0.000   0.000   0.000   0.354   0.000   0.000   0.000   0.000  -0.179
  0.000   0.000   0.000   0.000   0.000   0.000   0.000   0.000   0.000   0.000   0.000   0.192   0.000   0.000   0.000   0.000
  0.000   0.000   0.000   0.000   0.000   0.000   0.000   0.000   0.000   0.000   0.000   0.000   0.354   0.000   0.000   0.000
  0.000   0.000   0.000   0.000   0.000   0.000   0.000   0.000  -0.080   0.000   0.000   0.000   0.000   0.040   0.000   0.000
  0.000   0.000   0.000   0.000   0.000   0.000   0.000   0.000   0.000  -0.080   0.000   0.000   0.000   0.000   0.040   0.000
  0.000   0.000   0.000   0.000   0.000   0.000   0.000   0.000   0.000   0.000  -0.179   0.000   0.000   0.000   0.000   0.102
  0.000   0.000   0.000   0.000   0.000   0.000   0.000   0.000   0.000   0.000   0.000  -0.080   0.000   0.000   0.000   0.000
  0.000   0.000   0.000   0.000   0.000   0.000   0.000   0.000   0.000   0.000   0.000   0.000  -0.179   0.000   0.000   0.000
  0.000   0.000   0.013   0.000   0.000  -0.032   0.000   0.000   0.000   0.000   0.000   0.000   0.000   0.000   0.000   0.000
  0.000   0.000   0.000   0.000   0.000   0.000   0.000   0.000   0.000   0.000   0.000   0.000   0.000   0.000   0.000   0.000
  0.000   0.000   0.010   0.000   0.000  -0.025   0.000   0.000   0.000   0.000   0.000   0.000   0.000   0.000   0.000   0.000
  0.000   0.000   0.000  -0.017   0.000   0.000   0.041   0.000   0.000   0.000   0.000   0.000   0.000   0.000   0.000   0.000
  0.000   0.000   0.000   0.000   0.010   0.000   0.000  -0.025   0.000   0.000   0.000   0.000   0.000   0.000   0.000   0.000
  0.000   0.000   0.000   0.000   0.000   0.000   0.000   0.000   0.000   0.000   0.000   0.000   0.000   0.000   0.000   0.000
  0.000   0.000   0.000   0.000  -0.013   0.000   0.000   0.032   0.000   0.000   0.000   0.000   0.000   0.000   0.000   0.000
  0.000   0.000  -0.009   0.000   0.000   0.044   0.000   0.000   0.000   0.000   0.000   0.000   0.000   0.000   0.000   0.000
  0.000   0.000   0.000   0.000   0.000   0.000   0.000   0.000   0.000   0.000   0.000   0.000   0.000   0.000   0.000   0.000
  0.000   0.000  -0.007   0.000   0.000   0.034   0.000   0.000   0.000   0.000   0.000   0.000   0.000   0.000   0.000   0.000
  0.000   0.000   0.000   0.011   0.000   0.000  -0.056   0.000   0.000   0.000   0.000   0.000   0.000   0.000   0.000   0.000
  0.000   0.000   0.000   0.000  -0.007   0.000   0.000   0.034   0.000   0.000   0.000   0.000   0.000   0.000   0.000   0.000
  0.000   0.000   0.000   0.000   0.000   0.000   0.000   0.000   0.000   0.000   0.000   0.000   0.000   0.000   0.000   0.000
  0.000   0.000   0.000   0.000   0.009   0.000   0.000  -0.044   0.000   0.000   0.000   0.000   0.000   0.000   0.000   0.000


------------------------ aborting loop because EDIFF is reached ----------------------------------------


 


 total charge     
 
# of ion     s       p       d       f       tot
------------------------------------------------
  1        2.112   5.516   0.585   0.077   8.289
  2        0.575   0.188   8.866   0.000   9.629
------------------------------------------------
tot        2.687   5.704   9.451   0.077  17.918

 
    CHARGE:  cpu time    2.76: real time    2.76
    FORLOC:  cpu time    0.00: real time    0.00
    FORNL :  cpu time    3.08: real time    3.09
    STRESS:  cpu time    5.35: real time    5.36
    FORCOR:  cpu time    0.06: real time    0.06
    FORHAR:  cpu time    0.01: real time    0.02
    MIXING:  cpu time    0.00: real time    0.00
    FORVDW:  cpu time    0.00: real time    0.01

  FORCE on cell =-STRESS in cart. coord.  units (eV):
  Direction    XX          YY          ZZ          XY          YZ          ZX
  --------------------------------------------------------------------------------------
  Alpha Z   129.17669   129.17669   129.17669
  Ewald    -524.54517  -524.54517  -524.54517     0.00000     0.00000     0.00000
  Hartree   122.89853   122.89853   122.89853     0.00000     0.00000     0.00000
  E(xc)    -106.83591  -106.83591  -106.83591     0.00000     0.00000     0.00000
  Local      58.01093    58.01093    58.01093     0.00008     0.00008     0.00008
  n-local    19.28187    18.37540    21.92781    -5.34892     4.23360    -2.98665
  augment    15.06013    15.06013    15.06013     0.00001     0.00001     0.00001
  Kinetic   286.49842   290.22238   290.59617     1.96819    -3.90716     2.03058
  Fock        0.00000     0.00000     0.00000     0.00000     0.00000     0.00000
  -------------------------------------------------------------------------------------
  Total       2.73254     2.73254     2.73254     0.00000     0.00000     0.00000
  in kB      70.60258    70.60258    70.60258     0.00000     0.00000     0.00000
  external pressure =       70.60 kB  Pullay stress =        0.00 kB


 VOLUME and BASIS-vectors are now :
 -----------------------------------------------------------------------------
  energy-cutoff  :      520.00
  volume of cell :       62.01
      direct lattice vectors                 reciprocal lattice vectors
     0.000000000  3.141538000  3.141538000    -0.159157712  0.159157712  0.159157712
     3.141538000  0.000000000  3.141538000     0.159157712 -0.159157712  0.159157712
     3.141538000  3.141538000  0.000000000     0.159157712  0.159157712 -0.159157712

  length of vectors
     4.442805646  4.442805646  4.442805646     0.275669243  0.275669243  0.275669243


 FORCES acting on ions
    electron-ion (+dipol)            ewald-force                    non-local-force                 convergence-correction
 -----------------------------------------------------------------------------------------------
   -.124E-09 -.124E-09 -.124E-09   0.284E-03 0.284E-03 0.284E-03   -.424E-21 -.847E-21 0.127E-20   -.665E-05 -.665E-05 -.665E-05
   -.391E-02 -.391E-02 -.391E-02   -.284E-03 -.284E-03 -.284E-03   0.000E+00 -.339E-20 -.339E-20   0.268E-04 0.268E-04 0.268E-04
 -----------------------------------------------------------------------------------------------
   -.391E-02 -.391E-02 -.391E-02   0.716E-15 0.448E-15 -.503E-15   -.424E-21 -.424E-20 -.212E-20   0.202E-04 0.202E-04 0.202E-04
 
 
 POSITION                                       TOTAL-FORCE (eV/Angst)
 -----------------------------------------------------------------------------------
      0.00000      0.00000      0.00000         0.000000      0.000000      0.000000
      3.14154      3.14154      3.14154         0.000000      0.000000      0.000000
 -----------------------------------------------------------------------------------
    total drift:                               -0.003888     -0.003888     -0.003888


--------------------------------------------------------------------------------------------------------



  FREE ENERGIE OF THE ION-ELECTRON SYSTEM (eV)
  ---------------------------------------------------
  free  energy   TOTEN  =        -6.97148118 eV

  energy  without entropy=       -6.97148118  energy(sigma->0) =       -6.97148118
 


--------------------------------------------------------------------------------------------------------


    POTLOK:  cpu time    0.06: real time    0.07


--------------------------------------------------------------------------------------------------------


     LOOP+:  cpu time  390.92: real time  391.97
    4ORBIT:  cpu time    0.00: real time    0.00
 


 total charge     
 
# of ion     s       p       d       f       tot
------------------------------------------------
  1        2.112   5.516   0.585   0.077   8.289
  2        0.575   0.188   8.866   0.000   9.629
------------------------------------------------
tot        2.687   5.704   9.451   0.077  17.918

 
 BZINTS: Fermi energy:  5.871768; 22.000000 electrons
         Band energy:-101.539209;  BLOECHL correction: -0.008788

 total amount of memory used by VASP on root node   220867. kBytes
========================================================================

   base      :      30000. kBytes
   nonl-proj :     126262. kBytes
   grid      :       3607. kBytes
   one-center:         98. kBytes
   wavefun   :      60900. kBytes
 
  
  
 General timing and accounting informations for this job:
 ========================================================
  
                  Total CPU time used (sec):      403.215
                            User time (sec):      402.975
                          System time (sec):        0.240
                         Elapsed time (sec):      404.356
  
                   Maximum memory used (kb):      335336.
                   Average memory used (kb):           0.
  
                          Minor page faults:        10541
                          Major page faults:            0
                 Voluntary context switches:          136
