 vasp.6.1.0 28Jan20 (build Jul 15 2020 03:17:33) complex
 executed on          ARA Cluster date 2023.02.12  14:47:11
 running on   24 total cores
 distrk:  each k-point on   24 cores,    1 groups
 distr:  one band on NCORE=   1 cores,   24 groups


--------------------------------------------------------------------------------------------------------


 INCAR:
 POTCAR:    PAW_PBE Si_sv_GW 29Sep2009
 -----------------------------------------------------------------------------
|                                                                             |
|           W    W    AA    RRRRR   N    N  II  N    N   GGGG   !!!           |
|           W    W   A  A   R    R  NN   N  II  NN   N  G    G  !!!           |
|           W    W  A    A  R    R  N N  N  II  N N  N  G       !!!           |
|           W WW W  AAAAAA  RRRRR   N  N N  II  N  N N  G  GGG   !            |
|           WW  WW  A    A  R   R   N   NN  II  N   NN  G    G                |
|           W    W  A    A  R    R  N    N  II  N    N   GGGG   !!!           |
|                                                                             |
|     For optimal performance we recommend to set                             |
|       NCORE = 4 - approx SQRT(number of cores).                             |
|     NCORE specifies how many cores store one orbital (NPAR=cpu/NCORE).      |
|     This setting can greatly improve the performance of VASP for DFT.       |
|     The default, NCORE=1 might be grossly inefficient on modern             |
|     multi-core architectures or massively parallel machines. Do your        |
|     own testing!!!!                                                         |
|     Unfortunately you need to use the default for GW and RPA                |
|     calculations (for HF NCORE is supported but not extensively tested      |
|     yet).                                                                   |
|                                                                             |
 -----------------------------------------------------------------------------

 POTCAR:    PAW_PBE Si_sv_GW 29Sep2009
   SHA256 =  080bc3b9136621280115244d46fea0678e68791befc4188dfa111bf54c8301c2 Si_sv_GW/POTCAR
   COPYR  = (c) Copyright 29Sep2009 Georg Kresse
   COPYR  = This file is part of the software VASP. Any use, copying, and all other rights are regul
   COPYR  = If you do not have a valid VASP license, you may not use, copy or distribute this file.
   VRHFIN =Si: s2p2
   LEXCH  = PE
   EATOM  =  2779.1055 eV,  204.2585 Ry

   TITEL  = PAW_PBE Si_sv_GW 29Sep2009
   LULTRA =        F    use ultrasoft PP ?
   IUNSCR =        0    unscreen: 0-lin 1-nonlin 2-no
   RPACOR =    0.000    partial core radius
   POMASS =   28.085; ZVAL   =   12.000    mass and valenz
   RCORE  =    1.600    outmost cutoff radius
   RWIGS  =    2.480; RWIGS  =    1.312    wigner-seitz radius (au A)
   ENMAX  =  547.578; ENMIN  =  410.683 eV
   RCLOC  =    1.712    cutoff for local pot
   LCOR   =        T    correct aug charges
   LPAW   =        T    paw PP
   EAUG   = 1153.827
   RMAX   =    1.635    core radius for proj-oper
   RAUG   =    1.300    factor for augmentation sphere
   RDEP   =    1.645    radius for radial grids
   RDEPT  =    1.500    core radius for aug-charge

   Atomic configuration
    9 entries
     n  l   j            E        occ.
     1  0  0.50     -1785.8828   2.0000
     2  1  1.50       -95.5546   6.0000
     2  1  1.50       -97.9619   0.0000
     3  1  0.50        -4.0811   2.0000
     2  0  0.50      -139.4969   2.0000
     2  0  0.50      -141.5006   0.0000
     3  0  0.50       -10.8127   2.0000
     3  2  1.50        -4.0817   0.0000
     4  3  2.50        -4.0817   0.0000
   Description
     l       E           TYP  RCUT    TYP  RCUT
     1    -95.5545942     23  1.400
     1    -97.9619472     23  1.400
     1     -4.0811372     23  1.400
     0   -139.4969013     23  1.100
     0   -141.5005904     23  1.100
     0    -10.8127223     23  1.400
     2     -1.3605826     23  1.600
     2     81.6349560     23  1.600
     3     -1.3605826     23  1.600
  local pseudopotential read in
  kinetic energy density of atom read in
  atomic valenz-charges read in
  non local Contribution for L=           1  read in
    real space projection operators read in
  non local Contribution for L=           1  read in
    real space projection operators read in
  non local Contribution for L=           1  read in
    real space projection operators read in
  non local Contribution for L=           0  read in
    real space projection operators read in
  non local Contribution for L=           0  read in
    real space projection operators read in
  non local Contribution for L=           0  read in
    real space projection operators read in
  non local Contribution for L=           2  read in
    real space projection operators read in
  non local Contribution for L=           2  read in
    real space projection operators read in
  non local Contribution for L=           3  read in
    real space projection operators read in
    PAW grid and wavefunctions read in

   number of l-projection  operators is LMAX  =           9
   number of lm-projection operators is LMMAX =          29

  PAW_PBE Si_sv_GW 29Sep2009            :
 energy of atom  1       EATOM=-2779.1055
 kinetic energy error for atom=    0.2409 (will be added to EATOM!!)


 POSCAR: Si primitive cell
  positions in direct lattice
  No initial velocities read in
 exchange correlation table for  LEXCH =        8
   RHO(1)=    0.500       N(1)  =     2000
   RHO(2)=  100.500       N(2)  =     4000



--------------------------------------------------------------------------------------------------------


 ion  position               nearest neighbor table
   1  0.000  0.000  0.000-   2 2.37   2 2.37   2 2.37   2 2.37
   2  0.250  0.250  0.250-   1 2.37   1 2.37   1 2.37   1 2.37

  LATTYP: Found a face centered cubic cell.
 ALAT       =     5.4688911228

  Lattice vectors:

 A1 = (   3.8670900000,   0.0000000000,   0.0000000000)
 A2 = (   1.9335450000,   3.3489981800,   0.0000000000)
 A3 = (   1.9335450000,   1.1163327300,   3.1574657600)


Analysis of symmetry for initial positions (statically):
=====================================================================
 Subroutine PRICEL returns:
 Original cell was already a primitive cell.


 Routine SETGRP: Setting up the symmetry group for a
 face centered cubic supercell.


 Subroutine GETGRP returns: Found 48 space group operations
 (whereof 24 operations were pure point group operations)
 out of a pool of 48 trial point group operations.


The static configuration has the point symmetry T_d .
 The point group associated with its full space group is O_h .


Analysis of symmetry for dynamics (positions and initial velocities):
=====================================================================
 Subroutine PRICEL returns:
 Original cell was already a primitive cell.


 Routine SETGRP: Setting up the symmetry group for a
 face centered cubic supercell.


 Subroutine GETGRP returns: Found 48 space group operations
 (whereof 24 operations were pure point group operations)
 out of a pool of 48 trial point group operations.


The dynamic configuration has the point symmetry T_d .
 The point group associated with its full space group is O_h .


Analysis of constrained symmetry for selective dynamics:
=====================================================================
 Subroutine PRICEL returns:
 Original cell was already a primitive cell.


 Routine SETGRP: Setting up the symmetry group for a
 face centered cubic supercell.


 Subroutine GETGRP returns: Found 48 space group operations
 (whereof 24 operations were pure point group operations)
 out of a pool of 48 trial point group operations.


The constrained configuration has the point symmetry T_d .
 The point group associated with its full space group is O_h .


 Subroutine INISYM returns: Found 48 space group operations
 (whereof 24 operations are pure point group operations),
 and found     1 'primitive' translations


----------------------------------------------------------------------------------------

                                     Primitive cell

  volume of cell :      40.8920

  direct lattice vectors                    reciprocal lattice vectors
     3.867090000  0.000000000  0.000000000     0.258592378 -0.149298379 -0.105569896
     1.933545000  3.348998180  0.000000000     0.000000000  0.298596758 -0.105569897
     1.933545000  1.116332730  3.157465760     0.000000000  0.000000000  0.316709689

  length of vectors
     3.867090000  3.867090001  3.867089999     0.316709689  0.316709689  0.316709689

  position of ions in fractional coordinates (direct lattice)
     0.000000000  0.000000000  0.000000000
     0.250000000  0.250000000  0.250000000

  ion indices of the primitive-cell ions
   primitive index   ion index
                 1           1
                 2           2

----------------------------------------------------------------------------------------



 KPOINTS: KMESH

Automatic generation of k-mesh.
Space group operators:
 irot       det(A)        alpha          n_x          n_y          n_z        tau_x        tau_y        tau_z
    1     1.000000     0.000000     1.000000     0.000000     0.000000     0.000000     0.000000     0.000000
    2     1.000000   120.000000    -0.816497    -0.471405    -0.333333     0.000000     0.000000     0.000000
    3     1.000000   120.000000     0.816497     0.471405     0.333333     0.000000     0.000000     0.000000
    4    -1.000000    90.000000    -0.707107    -0.408248     0.577350     0.000000     0.000000     0.000000
    5    -1.000000   180.000000     1.000000     0.000000    -0.000000     0.000000     0.000000     0.000000
    6    -1.000000    90.000000     0.707107    -0.408248     0.577350     0.000000     0.000000     0.000000
    7     1.000000   180.000000     0.707107     0.408248    -0.577350     0.000000     0.000000     0.000000
    8     1.000000   120.000000     0.816497    -0.471405    -0.333333     0.000000     0.000000     0.000000
    9     1.000000   120.000000    -0.000000    -0.942809     0.333333     0.000000     0.000000     0.000000
   10    -1.000000    90.000000     0.707107     0.408248    -0.577350     0.000000     0.000000     0.000000
   11    -1.000000    90.000000     0.000000    -0.816497    -0.577350     0.000000     0.000000     0.000000
   12    -1.000000   180.000000     0.500000     0.866025    -0.000000     0.000000     0.000000     0.000000
   13     1.000000   120.000000    -0.000000     0.942809    -0.333333     0.000000     0.000000     0.000000
   14     1.000000   120.000000     0.000000    -0.000000    -1.000000     0.000000     0.000000     0.000000
   15     1.000000   180.000000     0.000000    -0.816497    -0.577350     0.000000     0.000000     0.000000
   16    -1.000000    90.000000    -0.707107     0.408248    -0.577350     0.000000     0.000000     0.000000
   17    -1.000000   179.999999     0.500000     0.288675     0.816497     0.000000     0.000000     0.000000
   18    -1.000000    90.000000     0.000000     0.816497     0.577350     0.000000     0.000000     0.000000
   19     1.000000   120.000000    -0.816497     0.471405     0.333333     0.000000     0.000000     0.000000
   20     1.000000   179.999999     0.707107    -0.408248     0.577350     0.000000     0.000000     0.000000
   21     1.000000   120.000000     0.000000     0.000000     1.000000     0.000000     0.000000     0.000000
   22    -1.000000   179.999999     0.000000    -0.577350     0.816497     0.000000     0.000000     0.000000
   23    -1.000000   180.000000    -0.500000     0.866025    -0.000000     0.000000     0.000000     0.000000
   24    -1.000000   180.000000    -0.500000     0.288675     0.816497     0.000000     0.000000     0.000000
   25    -1.000000     0.000000     1.000000     0.000000     0.000000     0.250000     0.250000     0.250000
   26    -1.000000   120.000000    -0.816497    -0.471405    -0.333333     0.250000     0.250000     0.250000
   27    -1.000000   120.000000     0.816497     0.471405     0.333333     0.250000     0.250000     0.250000
   28     1.000000    90.000000    -0.707107    -0.408248     0.577350     0.250000     0.250000     0.250000
   29     1.000000   180.000000     1.000000     0.000000    -0.000000     0.250000     0.250000     0.250000
   30     1.000000    90.000000     0.707107    -0.408248     0.577350     0.250000     0.250000     0.250000
   31    -1.000000   180.000000     0.707107     0.408248    -0.577350     0.250000     0.250000     0.250000
   32    -1.000000   120.000000     0.816497    -0.471405    -0.333333     0.250000     0.250000     0.250000
   33    -1.000000   120.000000    -0.000000    -0.942809     0.333333     0.250000     0.250000     0.250000
   34     1.000000    90.000000     0.707107     0.408248    -0.577350     0.250000     0.250000     0.250000
   35     1.000000    90.000000     0.000000    -0.816497    -0.577350     0.250000     0.250000     0.250000
   36     1.000000   180.000000     0.500000     0.866025    -0.000000     0.250000     0.250000     0.250000
   37    -1.000000   120.000000    -0.000000     0.942809    -0.333333     0.250000     0.250000     0.250000
   38    -1.000000   120.000000     0.000000    -0.000000    -1.000000     0.250000     0.250000     0.250000
   39    -1.000000   180.000000     0.000000    -0.816497    -0.577350     0.250000     0.250000     0.250000
   40     1.000000    90.000000    -0.707107     0.408248    -0.577350     0.250000     0.250000     0.250000
   41     1.000000   179.999999     0.500000     0.288675     0.816497     0.250000     0.250000     0.250000
   42     1.000000    90.000000     0.000000     0.816497     0.577350     0.250000     0.250000     0.250000
   43    -1.000000   120.000000    -0.816497     0.471405     0.333333     0.250000     0.250000     0.250000
   44    -1.000000   179.999999     0.707107    -0.408248     0.577350     0.250000     0.250000     0.250000
   45    -1.000000   120.000000     0.000000     0.000000     1.000000     0.250000     0.250000     0.250000
   46     1.000000   179.999999     0.000000    -0.577350     0.816497     0.250000     0.250000     0.250000
   47     1.000000   180.000000    -0.500000     0.866025    -0.000000     0.250000     0.250000     0.250000
   48     1.000000   180.000000    -0.500000     0.288675     0.816497     0.250000     0.250000     0.250000

 Subroutine IBZKPT returns following result:
 ===========================================

 Found     16 irreducible k-points:

 Following reciprocal coordinates:
            Coordinates               Weight
  0.000000  0.000000  0.000000      1.000000
  0.166667  0.000000  0.000000      8.000000
  0.333333  0.000000  0.000000      8.000000
  0.500000  0.000000  0.000000      4.000000
  0.166667  0.166667  0.000000      6.000000
  0.333333  0.166667  0.000000     24.000000
  0.500000  0.166667  0.000000     24.000000
 -0.333333  0.166667  0.000000     24.000000
 -0.166667  0.166667  0.000000     12.000000
  0.333333  0.333333  0.000000      6.000000
  0.500000  0.333333  0.000000     24.000000
 -0.333333  0.333333  0.000000     12.000000
  0.500000  0.500000  0.000000      3.000000
  0.500000  0.333333  0.166667     24.000000
 -0.333333  0.333333  0.166667     24.000000
 -0.333333  0.500000  0.166667     12.000000

 Following cartesian coordinates:
            Coordinates               Weight
  0.000000  0.000000  0.000000      1.000000
  0.043099 -0.024883 -0.017595      8.000000
  0.086197 -0.049766 -0.035190      8.000000
  0.129296 -0.074649 -0.052785      4.000000
  0.043099  0.024883 -0.035190      6.000000
  0.086197 -0.000000 -0.052785     24.000000
  0.129296 -0.024883 -0.070380     24.000000
 -0.086197  0.099532  0.017595     24.000000
 -0.043099  0.074649 -0.000000     12.000000
  0.086197  0.049766 -0.070380      6.000000
  0.129296  0.024883 -0.087975     24.000000
 -0.086197  0.149298 -0.000000     12.000000
  0.129296  0.074649 -0.105570      3.000000
  0.129296  0.024883 -0.035190     24.000000
 -0.086197  0.149298  0.052785     24.000000
 -0.086197  0.199065  0.035190     12.000000


 Subroutine IBZKPT_HF returns following result:
 ==============================================

 Found    216 k-points in 1st BZ
 the following    216 k-points will be used (e.g. in the exchange kernel)
 Following reciprocal coordinates:   # in IRBZ
  0.000000  0.000000  0.000000    0.00462963   1 t-inv F
  0.166667  0.000000  0.000000    0.00462963   2 t-inv F
  0.333333  0.000000  0.000000    0.00462963   3 t-inv F
  0.500000  0.000000  0.000000    0.00462963   4 t-inv F
  0.166667  0.166667  0.000000    0.00462963   5 t-inv F
  0.333333  0.166667  0.000000    0.00462963   6 t-inv F
  0.500000  0.166667  0.000000    0.00462963   7 t-inv F
 -0.333333  0.166667  0.000000    0.00462963   8 t-inv F
 -0.166667  0.166667  0.000000    0.00462963   9 t-inv F
  0.333333  0.333333  0.000000    0.00462963  10 t-inv F
  0.500000  0.333333  0.000000    0.00462963  11 t-inv F
 -0.333333  0.333333  0.000000    0.00462963  12 t-inv F
  0.500000  0.500000  0.000000    0.00462963  13 t-inv F
  0.500000  0.333333  0.166667    0.00462963  14 t-inv F
 -0.333333  0.333333  0.166667    0.00462963  15 t-inv F
 -0.333333  0.500000  0.166667    0.00462963  16 t-inv F
  0.000000  0.166667  0.000000    0.00462963   2 t-inv F
  0.000000  0.000000  0.166667    0.00462963   2 t-inv F
 -0.166667 -0.166667 -0.166667    0.00462963   2 t-inv F
 -0.166667 -0.000000 -0.000000    0.00462963   2 t-inv F
 -0.000000 -0.166667 -0.000000    0.00462963   2 t-inv F
 -0.000000 -0.000000 -0.166667    0.00462963   2 t-inv F
  0.166667  0.166667  0.166667    0.00462963   2 t-inv F
  0.000000  0.333333  0.000000    0.00462963   3 t-inv F
  0.000000  0.000000  0.333333    0.00462963   3 t-inv F
 -0.333333 -0.333333 -0.333333    0.00462963   3 t-inv F
 -0.333333 -0.000000 -0.000000    0.00462963   3 t-inv F
 -0.000000 -0.333333 -0.000000    0.00462963   3 t-inv F
 -0.000000 -0.000000 -0.333333    0.00462963   3 t-inv F
  0.333333  0.333333  0.333333    0.00462963   3 t-inv F
  0.000000  0.500000  0.000000    0.00462963   4 t-inv F
  0.000000  0.000000  0.500000    0.00462963   4 t-inv F
 -0.500000 -0.500000 -0.500000    0.00462963   4 t-inv F
  0.000000  0.166667  0.166667    0.00462963   5 t-inv F
  0.166667  0.000000  0.166667    0.00462963   5 t-inv F
 -0.166667 -0.166667  0.000000    0.00462963   5 t-inv F
 -0.166667  0.000000 -0.166667    0.00462963   5 t-inv F
  0.000000 -0.166667 -0.166667    0.00462963   5 t-inv F
  0.000000  0.333333  0.166667    0.00462963   6 t-inv F
  0.166667  0.000000  0.333333    0.00462963   6 t-inv F
 -0.166667 -0.166667  0.166667    0.00462963   6 t-inv F
 -0.333333 -0.166667 -0.333333    0.00462963   6 t-inv F
  0.166667  0.333333 -0.000000    0.00462963   6 t-inv F
  0.166667 -0.166667 -0.166667    0.00462963   6 t-inv F
 -0.333333 -0.333333 -0.166667    0.00462963   6 t-inv F
 -0.000000  0.166667  0.333333    0.00462963   6 t-inv F
 -0.166667  0.166667 -0.166667    0.00462963   6 t-inv F
 -0.166667 -0.333333 -0.333333    0.00462963   6 t-inv F
  0.333333 -0.000000  0.166667    0.00462963   6 t-inv F
 -0.333333 -0.166667 -0.000000    0.00462963   6 t-inv F
 -0.000000 -0.333333 -0.166667    0.00462963   6 t-inv F
 -0.166667 -0.000000 -0.333333    0.00462963   6 t-inv F
  0.166667  0.166667 -0.166667    0.00462963   6 t-inv F
  0.333333  0.166667  0.333333    0.00462963   6 t-inv F
 -0.166667 -0.333333  0.000000    0.00462963   6 t-inv F
 -0.166667  0.166667  0.166667    0.00462963   6 t-inv F
  0.333333  0.333333  0.166667    0.00462963   6 t-inv F
  0.000000 -0.166667 -0.333333    0.00462963   6 t-inv F
  0.166667 -0.166667  0.166667    0.00462963   6 t-inv F
  0.166667  0.333333  0.333333    0.00462963   6 t-inv F
 -0.333333  0.000000 -0.166667    0.00462963   6 t-inv F
  0.000000  0.500000  0.166667    0.00462963   7 t-inv F
  0.166667  0.000000  0.500000    0.00462963   7 t-inv F
 -0.166667 -0.166667  0.333333    0.00462963   7 t-inv F
 -0.500000 -0.333333 -0.500000    0.00462963   7 t-inv F
  0.166667  0.500000 -0.000000    0.00462963   7 t-inv F
  0.333333 -0.166667 -0.166667    0.00462963   7 t-inv F
 -0.500000 -0.500000 -0.333333    0.00462963   7 t-inv F
 -0.000000  0.166667  0.500000    0.00462963   7 t-inv F
 -0.166667  0.333333 -0.166667    0.00462963   7 t-inv F
 -0.333333 -0.500000 -0.500000    0.00462963   7 t-inv F
  0.500000 -0.000000  0.166667    0.00462963   7 t-inv F
 -0.500000 -0.166667 -0.000000    0.00462963   7 t-inv F
 -0.000000 -0.500000 -0.166667    0.00462963   7 t-inv F
 -0.166667 -0.000000 -0.500000    0.00462963   7 t-inv F
  0.166667  0.166667 -0.333333    0.00462963   7 t-inv F
  0.500000  0.333333  0.500000    0.00462963   7 t-inv F
 -0.166667 -0.500000  0.000000    0.00462963   7 t-inv F
 -0.333333  0.166667  0.166667    0.00462963   7 t-inv F
  0.500000  0.500000  0.333333    0.00462963   7 t-inv F
  0.000000 -0.166667 -0.500000    0.00462963   7 t-inv F
  0.166667 -0.333333  0.166667    0.00462963   7 t-inv F
  0.333333  0.500000  0.500000    0.00462963   7 t-inv F
 -0.500000  0.000000 -0.166667    0.00462963   7 t-inv F
  0.000000 -0.333333  0.166667    0.00462963   8 t-inv F
  0.166667  0.000000 -0.333333    0.00462963   8 t-inv F
 -0.166667 -0.166667 -0.500000    0.00462963   8 t-inv F
  0.333333  0.500000  0.333333    0.00462963   8 t-inv F
  0.166667 -0.333333 -0.000000    0.00462963   8 t-inv F
 -0.500000 -0.166667 -0.166667    0.00462963   8 t-inv F
  0.333333  0.333333  0.500000    0.00462963   8 t-inv F
 -0.000000  0.166667 -0.333333    0.00462963   8 t-inv F
 -0.166667 -0.500000 -0.166667    0.00462963   8 t-inv F
  0.500000  0.333333  0.333333    0.00462963   8 t-inv F
 -0.333333 -0.000000  0.166667    0.00462963   8 t-inv F
  0.333333 -0.166667 -0.000000    0.00462963   8 t-inv F
 -0.000000  0.333333 -0.166667    0.00462963   8 t-inv F
 -0.166667 -0.000000  0.333333    0.00462963   8 t-inv F
  0.166667  0.166667  0.500000    0.00462963   8 t-inv F
 -0.333333 -0.500000 -0.333333    0.00462963   8 t-inv F
 -0.166667  0.333333  0.000000    0.00462963   8 t-inv F
  0.500000  0.166667  0.166667    0.00462963   8 t-inv F
 -0.333333 -0.333333 -0.500000    0.00462963   8 t-inv F
  0.000000 -0.166667  0.333333    0.00462963   8 t-inv F
  0.166667  0.500000  0.166667    0.00462963   8 t-inv F
 -0.500000 -0.333333 -0.333333    0.00462963   8 t-inv F
  0.333333  0.000000 -0.166667    0.00462963   8 t-inv F
  0.000000 -0.166667  0.166667    0.00462963   9 t-inv F
  0.166667  0.000000 -0.166667    0.00462963   9 t-inv F
 -0.166667 -0.166667 -0.333333    0.00462963   9 t-inv F
  0.166667  0.333333  0.166667    0.00462963   9 t-inv F
  0.166667 -0.166667 -0.000000    0.00462963   9 t-inv F
 -0.333333 -0.166667 -0.166667    0.00462963   9 t-inv F
  0.166667  0.166667  0.333333    0.00462963   9 t-inv F
 -0.000000  0.166667 -0.166667    0.00462963   9 t-inv F
 -0.166667 -0.333333 -0.166667    0.00462963   9 t-inv F
  0.333333  0.166667  0.166667    0.00462963   9 t-inv F
 -0.166667 -0.000000  0.166667    0.00462963   9 t-inv F
  0.000000  0.333333  0.333333    0.00462963  10 t-inv F
  0.333333  0.000000  0.333333    0.00462963  10 t-inv F
 -0.333333 -0.333333  0.000000    0.00462963  10 t-inv F
 -0.333333  0.000000 -0.333333    0.00462963  10 t-inv F
  0.000000 -0.333333 -0.333333    0.00462963  10 t-inv F
  0.000000  0.500000  0.333333    0.00462963  11 t-inv F
  0.333333  0.000000  0.500000    0.00462963  11 t-inv F
 -0.333333 -0.333333  0.166667    0.00462963  11 t-inv F
 -0.500000 -0.166667 -0.500000    0.00462963  11 t-inv F
  0.333333  0.500000 -0.000000    0.00462963  11 t-inv F
  0.166667 -0.333333 -0.333333    0.00462963  11 t-inv F
 -0.500000 -0.500000 -0.166667    0.00462963  11 t-inv F
 -0.000000  0.333333  0.500000    0.00462963  11 t-inv F
 -0.333333  0.166667 -0.333333    0.00462963  11 t-inv F
 -0.166667 -0.500000 -0.500000    0.00462963  11 t-inv F
  0.500000 -0.000000  0.333333    0.00462963  11 t-inv F
 -0.500000 -0.333333 -0.000000    0.00462963  11 t-inv F
 -0.000000 -0.500000 -0.333333    0.00462963  11 t-inv F
 -0.333333 -0.000000 -0.500000    0.00462963  11 t-inv F
  0.333333  0.333333 -0.166667    0.00462963  11 t-inv F
  0.500000  0.166667  0.500000    0.00462963  11 t-inv F
 -0.333333 -0.500000  0.000000    0.00462963  11 t-inv F
 -0.166667  0.333333  0.333333    0.00462963  11 t-inv F
  0.500000  0.500000  0.166667    0.00462963  11 t-inv F
  0.000000 -0.333333 -0.500000    0.00462963  11 t-inv F
  0.333333 -0.166667  0.333333    0.00462963  11 t-inv F
  0.166667  0.500000  0.500000    0.00462963  11 t-inv F
 -0.500000  0.000000 -0.333333    0.00462963  11 t-inv F
  0.000000 -0.333333  0.333333    0.00462963  12 t-inv F
  0.333333  0.000000 -0.333333    0.00462963  12 t-inv F
 -0.333333 -0.333333 -0.666667    0.00462963  12 t-inv F
  0.333333  0.666667  0.333333    0.00462963  12 t-inv F
  0.333333 -0.333333 -0.000000    0.00462963  12 t-inv F
 -0.666667 -0.333333 -0.333333    0.00462963  12 t-inv F
  0.333333  0.333333  0.666667    0.00462963  12 t-inv F
 -0.000000  0.333333 -0.333333    0.00462963  12 t-inv F
 -0.333333 -0.666667 -0.333333    0.00462963  12 t-inv F
  0.666667  0.333333  0.333333    0.00462963  12 t-inv F
 -0.333333 -0.000000  0.333333    0.00462963  12 t-inv F
  0.000000  0.500000  0.500000    0.00462963  13 t-inv F
  0.500000  0.000000  0.500000    0.00462963  13 t-inv F
  0.166667  0.500000  0.333333    0.00462963  14 t-inv F
  0.333333  0.166667  0.500000    0.00462963  14 t-inv F
 -0.333333 -0.166667  0.166667    0.00462963  14 t-inv F
 -0.500000 -0.166667 -0.333333    0.00462963  14 t-inv F
 -0.166667  0.333333  0.166667    0.00462963  14 t-inv F
  0.166667  0.333333 -0.166667    0.00462963  14 t-inv F
  0.166667 -0.166667 -0.333333    0.00462963  14 t-inv F
 -0.333333 -0.166667 -0.500000    0.00462963  14 t-inv F
 -0.333333 -0.500000 -0.166667    0.00462963  14 t-inv F
  0.166667 -0.166667  0.333333    0.00462963  14 t-inv F
  0.166667 -0.333333 -0.166667    0.00462963  14 t-inv F
 -0.166667  0.166667  0.333333    0.00462963  14 t-inv F
 -0.333333  0.166667 -0.166667    0.00462963  14 t-inv F
 -0.500000 -0.333333 -0.166667    0.00462963  14 t-inv F
 -0.166667 -0.333333 -0.500000    0.00462963  14 t-inv F
  0.333333  0.166667 -0.166667    0.00462963  14 t-inv F
 -0.166667  0.166667 -0.333333    0.00462963  14 t-inv F
  0.333333 -0.166667  0.166667    0.00462963  14 t-inv F
 -0.166667 -0.333333  0.166667    0.00462963  14 t-inv F
 -0.166667 -0.500000 -0.333333    0.00462963  14 t-inv F
  0.500000  0.166667  0.333333    0.00462963  14 t-inv F
  0.333333  0.500000  0.166667    0.00462963  14 t-inv F
  0.166667  0.333333  0.500000    0.00462963  14 t-inv F
  0.166667 -0.333333  0.333333    0.00462963  15 t-inv F
  0.333333  0.166667 -0.333333    0.00462963  15 t-inv F
 -0.333333 -0.166667 -0.666667    0.00462963  15 t-inv F
  0.333333  0.666667  0.500000    0.00462963  15 t-inv F
 -0.166667 -0.500000  0.166667    0.00462963  15 t-inv F
  0.166667 -0.500000 -0.166667    0.00462963  15 t-inv F
 -0.666667 -0.166667 -0.333333    0.00462963  15 t-inv F
  0.500000  0.666667  0.333333    0.00462963  15 t-inv F
  0.500000  0.333333  0.666667    0.00462963  15 t-inv F
  0.166667 -0.166667 -0.500000    0.00462963  15 t-inv F
 -0.666667 -0.333333 -0.166667    0.00462963  15 t-inv F
 -0.166667  0.166667 -0.500000    0.00462963  15 t-inv F
 -0.333333 -0.666667 -0.166667    0.00462963  15 t-inv F
  0.333333  0.500000  0.666667    0.00462963  15 t-inv F
  0.666667  0.500000  0.333333    0.00462963  15 t-inv F
 -0.500000  0.166667 -0.166667    0.00462963  15 t-inv F
 -0.166667 -0.666667 -0.333333    0.00462963  15 t-inv F
 -0.500000 -0.166667  0.166667    0.00462963  15 t-inv F
 -0.166667 -0.333333 -0.666667    0.00462963  15 t-inv F
  0.666667  0.333333  0.500000    0.00462963  15 t-inv F
 -0.333333  0.166667  0.333333    0.00462963  15 t-inv F
  0.333333 -0.333333  0.166667    0.00462963  15 t-inv F
  0.166667  0.333333 -0.333333    0.00462963  15 t-inv F
  0.166667 -0.333333  0.500000    0.00462963  16 t-inv F
  0.500000  0.166667 -0.333333    0.00462963  16 t-inv F
 -0.500000 -0.333333 -0.833333    0.00462963  16 t-inv F
  0.333333  0.833333  0.500000    0.00462963  16 t-inv F
 -0.166667 -0.500000  0.333333    0.00462963  16 t-inv F
  0.333333 -0.500000 -0.166667    0.00462963  16 t-inv F
  0.500000  0.833333  0.333333    0.00462963  16 t-inv F
  0.500000  0.333333  0.833333    0.00462963  16 t-inv F
 -0.833333 -0.500000 -0.333333    0.00462963  16 t-inv F
 -0.166667  0.333333 -0.500000    0.00462963  16 t-inv F
 -0.333333 -0.833333 -0.500000    0.00462963  16 t-inv F


--------------------------------------------------------------------------------------------------------




 Dimension of arrays:
   k-points           NKPTS =     16   k-points in BZ     NKDIM =    216   number of bands    NBANDS=     72
   number of dos      NEDOS =    301   number of ions     NIONS =      2
   non local maximal  LDIM  =      9   non local SUM 2l+1 LMDIM =     29
   total plane-waves  NPLWV =  13824
   max r-space proj   IRMAX =      1   max aug-charges    IRDMAX=   6553
   dimension x,y,z NGX =    24 NGY =   24 NGZ =   24
   dimension x,y,z NGXF=    48 NGYF=   48 NGZF=   48
   support grid    NGXF=    48 NGYF=   48 NGZF=   48
   ions per type =               2
   NGX,Y,Z   is equivalent  to a cutoff of  10.32, 10.32, 10.32 a.u.
   NGXF,Y,Z  is equivalent  to a cutoff of  20.64, 20.64, 20.64 a.u.

 SYSTEM =  unknown system
 POSCAR =  Si primitive cell

 Startparameter for this run:
   NWRITE =      2    write-flag & timer
   PREC   = normal    normal or accurate (medium, high low for compatibility)
   ISTART =      1    job   : 0-new  1-cont  2-samecut
   ICHARG =      0    charge: 1-file 2-atom 10-const
   ISPIN  =      1    spin polarized calculation?
   LNONCOLLINEAR =      F non collinear calculations
   LSORBIT =      F    spin-orbit coupling
   INIWAV =      1    electr: 0-lowe 1-rand  2-diag
   LASPH  =      F    aspherical Exc in radial PAW
   METAGGA=      F    non-selfconsistent MetaGGA calc.

 Electronic Relaxation 1
   ENCUT  =  547.6 eV  40.25 Ry    6.34 a.u.   7.38  7.38  7.38*2*pi/ulx,y,z
   ENINI  =  547.6     initial cutoff
   ENAUG  = 1153.8 eV  augmentation charge cutoff
   NELM   =      4;   NELMIN=  2; NELMDL=  0     # of ELM steps
   EDIFF  = 0.1E-07   stopping-criterion for ELM
   LREAL  =      F    real-space projection
   NLSPLINE    = F    spline interpolate recip. space projectors
   LCOMPAT=      F    compatible to vasp.4.4
   GGA_COMPAT  = T    GGA compatible to vasp.4.4-vasp.4.6
   LMAXPAW     = -100 max onsite density
   LMAXMIX     =    2 max onsite mixed and CHGCAR
   VOSKOWN=      0    Vosko Wilk Nusair interpolation
   ROPT   =    0.00000
 Ionic relaxation
   EDIFFG = 0.1E-06   stopping-criterion for IOM
   NSW    =      0    number of steps for IOM
   NBLOCK =      1;   KBLOCK =      1    inner block; outer block
   IBRION =     -1    ionic relax: 0-MD 1-quasi-New 2-CG
   NFREE  =      0    steps in history (QN), initial steepest desc. (CG)
   ISIF   =      0    stress and relaxation
   IWAVPR =     10    prediction:  0-non 1-charg 2-wave 3-comb
   ISYM   =      3    0-nonsym 1-usesym 2-fastsym
   LCORR  =      T    Harris-Foulkes like correction to forces

   POTIM  = 0.5000    time-step for ionic-motion
   TEIN   =    0.0    initial temperature
   TEBEG  =    0.0;   TEEND  =   0.0 temperature during run
   SMASS  =  -3.00    Nose mass-parameter (am)
   estimated Nose-frequenzy (Omega)   =  0.10E-29 period in steps = 0.13E+47 mass=  -0.342E-27a.u.
   SCALEE = 1.0000    scale energy and forces
   NPACO  =    256;   APACO  = 16.0  distance and # of slots for P.C.
   PSTRESS=    0.0 pullay stress

  Mass of Ions in am
   POMASS =  28.09
  Ionic Valenz
   ZVAL   =  12.00
  Atomic Wigner-Seitz radii
   RWIGS  =  -1.00
  virtual crystal weights
   VCA    =   1.00
   NELECT =      24.0000    total number of electrons
   NUPDOWN=      -1.0000    fix difference up-down

 DOS related values:
   EMIN   =  10.00;   EMAX   =-10.00  energy-range for DOS
   EFERMI =   0.00
   ISMEAR =     0;   SIGMA  =   0.05  broadening in eV -4-tet -1-fermi 0-gaus

 Electronic relaxation 2 (details)
   IALGO  =     38    algorithm
   LDIAG  =      T    sub-space diagonalisation (order eigenvalues)
   LSUBROT=      F    optimize rotation matrix (better conditioning)
   TURBO    =      0    0=normal 1=particle mesh
   IRESTART =      0    0=no restart 2=restart with 2 vectors
   NREBOOT  =      0    no. of reboots
   NMIN     =      0    reboot dimension
   EREF     =   0.00    reference energy to select bands
   IMIX   =      4    mixing-type and parameters
     AMIX     =   0.40;   BMIX     =  1.00
     AMIX_MAG =   1.60;   BMIX_MAG =  1.00
     AMIN     =   0.10
     WC   =   100.;   INIMIX=   1;  MIXPRE=   1;  MAXMIX= -45

 Intra band minimization:
   WEIMIN = 0.0000     energy-eigenvalue tresh-hold
   EBREAK =  0.35E-10  absolut break condition
   DEPER  =   0.30     relativ break condition

   TIME   =   0.40     timestep for ELM

  volume/ion in A,a.u.               =      20.45       137.98
  Fermi-wavevector in a.u.,A,eV,Ry     =   1.370669  2.590189 25.561726  1.878734
  Thomas-Fermi vector in A             =   2.496435

 Write flags
   LWAVE        =      T    write WAVECAR
   LDOWNSAMPLE  =      F    k-point downsampling of WAVECAR
   LCHARG       =      T    write CHGCAR
   LVTOT        =      F    write LOCPOT, total local potential
   LVHAR        =      F    write LOCPOT, Hartree potential only
   LELF         =      F    write electronic localiz. function (ELF)
   LORBIT       =      0    0 simple, 1 ext, 2 COOP (PROOUT), +10 PAW based schemes


 Dipole corrections
   LMONO  =      F    monopole corrections only (constant potential shift)
   LDIPOL =      F    correct potential (dipole corrections)
   IDIPOL =      0    1-x, 2-y, 3-z, 4-all directions
   EPSILON=  1.0000000 bulk dielectric constant

 Exchange correlation treatment:
   GGA     =    --    GGA type
   LEXCH   =     8    internal setting for exchange type
   VOSKOWN=      0    Vosko Wilk Nusair interpolation
   EXXOEP  =     0    0=HF, 1=EXX-LHF (local Hartree Fock) 2=EXX OEP
   LHFCALC =     T    Hartree Fock is set to
   LSYMGRAD=     F    symmetrize gradient (conserves proper symmetry)
   PRECFOCK=normal    Normal, Fast or Accurate (Low or Medium for compatibility)
   LRHFCALC=     F    long range Hartree Fock
   LRSCOR  =     F    long range correlation only (use DFT for short range part)
   LTHOMAS =     F    Thomas Fermi screening in HF
   LMODELHF=     F    short range full HF, long range fraction AEXX
   LFOCKACE=     T    use Adeptively-Compressed-Exchange operator
   ENCUT4O =  -1.0   cutoff for four orbital integrals eV
   LMAXFOCK=     4    L truncation for augmentation on plane wave grid
   LMAXFOCKAE=   4    L truncation for all-electron charge restoration on plane wave grid
   NMAXFOCKAE=   1    number of basis functions for all-electron charge restoration
   LFOCKAEDFT=     F  apply the AE augmentation even for DFT
   NKREDX  =     1    reduce k-point grid by
   NKREDY  =     1    reduce k-point grid by
   NKREDZ  =     1    reduce k-point grid by
   SHIFTRED=     F    shift reduced grid of Gamma
   HFKIDENT=     F    idential grid for each k-point
   ODDONLY =     F    use only odd q-grid points
   EVENONLY=     F    use only even q-grid points
   HFALPHA =   -1.0000 decay constant for conv. correction
   MCALPHA =    0.0000 extent of test-charge in conv. correction in multipole expansion
   AEXX    =    1.0000 exact exchange contribution
   HFSCREEN=    0.0000 screening length (either q_TF or 0.3 A-1)
   HFSCREENC=   0.0000 screening length for correlation (either q_TF or 0.3 A-1)
   HFRCUT  =    0.0000 spherical cutoff for potential kernel
   ALDAX   =    0.0000 LDA exchange part
   AGGAX   =    0.0000 GGA exchange part
   ALDAC   =    0.0000 LDA correlation
   AGGAC   =    0.0000 GGA correlation
   ENCUTFOCK=  -1.0 apply spherical cutoff to Coloumb kernel
   NBANDSGWLOW=     1    first orbital included in HF term
   NBLOCK_FOCK=    64    blocking factor in FOCK_ACC
 Linear response parameters
   LEPSILON=     F    determine dielectric tensor
   LRPA    =     F    only Hartree local field effects (RPA)
   LNABLA  =     F    use nabla operator in PAW spheres
   LVEL    =     F    velocity operator in full k-point grid
   LINTERFAST=   F  fast interpolation
   KINTER  =     0    interpolate to denser k-point grid
   CSHIFT  =0.1000    complex shift for real part using Kramers Kronig
   OMEGAMAX=  -1.0    maximum frequency
   DEG_THRESHOLD= 0.2000000E-02 threshold for treating states as degnerate
   RTIME   =   -0.100 relaxation time in fs
  (WPLASMAI=    0.000 imaginary part of plasma frequency in eV, 0.658/RTIME)
   DFIELD  = 0.0000000 0.0000000 0.0000000 field for delta impulse in time

 Orbital magnetization related:
   ORBITALMAG=     F  switch on orbital magnetization
   LCHIMAG   =     F  perturbation theory with respect to B field
   DQ        =  0.001000  dq finite difference perturbation B field
   LLRAUG    =     F  two centre corrections for induced B field

 Response functions by sum over occupied states:
   ALGO                = EVGW0    selected many-body perturbation algorithm
   LFINITE_TEMPERATURE =     F    use finite temperature formalism
   LFXC                =     F    include DFT xc kernel in TD-HF and W
   LADDER              =     F    particle hole ladder diagrams for BSE/TD-HF and W (Nano-quanta)
   LRPAFORCE           =     F    calculate RPA forces
   LHARTREE            =     T    include Hartree terms (bubbles-RPA) in BSE/TD-HF
   IBSE                =     0    BSE modus: 0 exact, 1 time-evolution (store matrix), 10 time-evolution (implicit)
   KPOINT              =    -1   0   0   0    k-point index at which BSE equation is solved (and G at which response is eval.)
   LTRIPLET            =     F    triplet instead of singlet excitation (BSE only)
   LRSRPA              =     F    range separated RPA (total - short) in ACFDT
   LTCTC               =     F    use test-charge test-charge for self-energy (with ALGO=QPBSE)
   LTCTE               =     F    use test-charge test-electron dielectric function
   LTETE               =     F    use test-electron test-electron dielectric function
   LFXCEPS             =     F    determine f_xc=epsilon-1/Xi Sharma and Gross kernel
   LFXHEG              =     F    model exchange using f_x(G,k_F) from free electron gas
   NATURALO            =     2    0 natural orbitals, 1 only virtual, 2 only occupied-virtual rotation
   LHOLEGF             =     F    use holes in self-consistent GW
   L2ORDER             =     F    2nd order terms only
   LDMP1               =     F    first order term in ACFDT routine is calculated
   LMP2LT              =     F    use LT MP2
   LSMP2LT             =     F    use stochastic LT MP2
   LGWLF               =     F    use W potentials for exchange like diagrams
   ENCUTGW             = 365.1    cutoff for response function in eV
   ENCUTGWSOFT         = 365.1    soft cutoff for Coulomb kernel in GW response function in eV
   ENCUTLF             =  -1.0    cutoff for local field effects
   LESF_SPLINES        =     F    tricubic splines for electronic structure factor S(q+G)
   LMAXMP2             =    -1    maximum L for one center terms
   SCISSOR             =   0.0    scissor correction
   NOMEGA              =    50    number of frequencies
   NOMEGAR             =    50    number of frequencies along real axis
   NBANDSGW            =    -1    number of bands for which selfenergy shift is calculated
   NBANDSGWLOW         =     1    lowest band included in GW (to exclude core correlation)
   NBANDSO             =    -1    number of bands for electron-hole treatment (occupied)
   NBANDSV             =    -1    number of bands for electron-hole treatment (virtual)
   NELM                =     4    number of iterations in solving QP/BSE equation
   NELMHF              =     1    number of iterations in the inner HF iteration
   DIM                 =     3    dimensionality of system (0=0D molecules, 3=3D)
   IEPSILON            =     4    cartesion direction for which dielectric function is calculated (4=all)
   ANTIRES             =     0    antiresonant part (0) no TDA (1) w=0 exact (2) accurate
   OMEGAMAX            = -30.0    maximum frequency
   OMEGAMIN            = -30.0    minimum frequency
   OMEGATL             =-200.0    maximum frequency of tail
   OMEGAGRID           =     0    grid type (0 default)
   CSHIFT              =  -0.1    complex shift used in evaluation of response functions
   LSELFENERGY         =     F    calculate selfenergy instead of QP shifts
   LSPECTRAL           =     T    use spectral functions
   LSPECTRALGW         =     F    use spectral functions to calculate int dz G(w-z) W(z) (more accurate)
   LSINGLES            =     F    calculate the singles contribution to the correlation energy
   LFERMIGW            =     F    update Fermi-energy in the Greens function

   ODDONLYGW           =     F    avoid all even points for polarizability
   EVENONLYGW          =     F    avoid all odd  points for polarizability
   NKREDLFX            =     1    NKREDLFY  =   1   NKREDLFZ  =   1

   TELESCOPE           =     0    use telescope k-point sampling
   NTAUPAR             =    -1    number of TAU groups used in imaginary time calculation
   NOMEGAPAR           =    -1    number of OMEGA groups used in imaginary frequency calculation



--------------------------------------------------------------------------------------------------------


 Static calculation
 charge density and potential will be updated during run
 non-spin polarized calculation
 Variant of blocked Davidson
 Davidson routine will perform the subspace rotation
 perform sub-space diagonalisation
    after iterative eigenvector-optimisation
 modified Broyden-mixing scheme, WC =      100.0
 initial mixing is a Kerker type mixing with AMIX =  0.4000 and BMIX =      1.0000
 Hartree-type preconditioning will be used
 using additional bands           60
 reciprocal scheme for non local part
 calculate Harris-corrections to forces   (improved forces if not selfconsistent)
 use gradient corrections
 use of overlap-Matrix (Vanderbilt PP)
 Gauss-broadening in eV      SIGMA  =   0.05


--------------------------------------------------------------------------------------------------------


  energy-cutoff  :      547.58
  volume of cell :       40.89
      direct lattice vectors                 reciprocal lattice vectors
     3.867090000  0.000000000  0.000000000     0.258592378 -0.149298379 -0.105569896
     1.933545000  3.348998180  0.000000000     0.000000000  0.298596758 -0.105569897
     1.933545000  1.116332730  3.157465760     0.000000000  0.000000000  0.316709689

  length of vectors
     3.867090000  3.867090001  3.867089999     0.316709689  0.316709689  0.316709689



 old parameters found on file WAVECAR:
  energy-cutoff  :      547.58
  volume of cell :       40.89
      direct lattice vectors                 reciprocal lattice vectors
     3.867090000  0.000000000  0.000000000     0.258592378 -0.149298379 -0.105569896
     1.933545000  3.348998180  0.000000000     0.000000000  0.298596758 -0.105569897
     1.933545000  1.116332730  3.157465760     0.000000000  0.000000000  0.316709689

  length of vectors


 k-points in units of 2pi/SCALE and weight: KMESH
   0.00000000  0.00000000  0.00000000       0.005
   0.04309873 -0.02488306 -0.01759498       0.037
   0.08619746 -0.04976613 -0.03518997       0.037
   0.12929619 -0.07464919 -0.05278495       0.019
   0.04309873  0.02488306 -0.03518997       0.028
   0.08619746 -0.00000000 -0.05278495       0.111
   0.12929619 -0.02488306 -0.07037993       0.111
  -0.08619746  0.09953225  0.01759498       0.111
  -0.04309873  0.07464919 -0.00000000       0.056
   0.08619746  0.04976613 -0.07037993       0.028
   0.12929619  0.02488306 -0.08797491       0.111
  -0.08619746  0.14929838 -0.00000000       0.056
   0.12929619  0.07464919 -0.10556990       0.014
   0.12929619  0.02488306 -0.03518997       0.111
  -0.08619746  0.14929838  0.05278495       0.111
  -0.08619746  0.19906451  0.03518997       0.056

 k-points in reciprocal lattice and weights: KMESH
   0.00000000  0.00000000  0.00000000       0.005
   0.16666667  0.00000000  0.00000000       0.037
   0.33333333  0.00000000  0.00000000       0.037
   0.50000000  0.00000000  0.00000000       0.019
   0.16666667  0.16666667  0.00000000       0.028
   0.33333333  0.16666667  0.00000000       0.111
   0.50000000  0.16666667  0.00000000       0.111
  -0.33333333  0.16666667  0.00000000       0.111
  -0.16666667  0.16666667  0.00000000       0.056
   0.33333333  0.33333333  0.00000000       0.028
   0.50000000  0.33333333  0.00000000       0.111
  -0.33333333  0.33333333  0.00000000       0.056
   0.50000000  0.50000000  0.00000000       0.014
   0.50000000  0.33333333  0.16666667       0.111
  -0.33333333  0.33333333  0.16666667       0.111
  -0.33333333  0.50000000  0.16666667       0.056

 position of ions in fractional coordinates (direct lattice)
   0.00000000  0.00000000  0.00000000
   0.25000000  0.25000000  0.25000000

 position of ions in cartesian coordinates  (Angst):
   0.00000000  0.00000000  0.00000000
   1.93354500  1.11633273  0.78936644



--------------------------------------------------------------------------------------------------------


 k-point   1 :   0.0000 0.0000 0.0000  plane waves:    1243
 k-point   2 :   0.1667 0.0000 0.0000  plane waves:    1203
 k-point   3 :   0.3333 0.0000 0.0000  plane waves:    1176
 k-point   4 :   0.5000 0.0000 0.0000  plane waves:    1194
 k-point   5 :   0.1667 0.1667 0.0000  plane waves:    1187
 k-point   6 :   0.3333 0.1667 0.0000  plane waves:    1190
 k-point   7 :   0.5000 0.1667 0.0000  plane waves:    1189
 k-point   8 :  -0.3333 0.1667 0.0000  plane waves:    1181
 k-point   9 :  -0.1667 0.1667 0.0000  plane waves:    1193
 k-point  10 :   0.3333 0.3333 0.0000  plane waves:    1218
 k-point  11 :   0.5000 0.3333 0.0000  plane waves:    1195
 k-point  12 :  -0.3333 0.3333 0.0000  plane waves:    1182
 k-point  13 :   0.5000 0.5000 0.0000  plane waves:    1162
 k-point  14 :   0.5000 0.3333 0.1667  plane waves:    1192
 k-point  15 :  -0.3333 0.3333 0.1667  plane waves:    1186
 k-point  16 :  -0.3333 0.5000 0.1667  plane waves:    1182

 maximum and minimum number of plane-waves per node :      1243     1162

 maximum number of plane-waves:      1243
 maximum index in each direction:
   IXMAX=    7   IYMAX=    7   IZMAX=    7
   IXMIN=   -7   IYMIN=   -7   IZMIN=   -7


 serial   3D FFT for wavefunctions
 parallel 3D FFT for charge:
    minimum data exchange during FFTs selected (reduces bandwidth)


 Radii for the augmentation spheres in the non-local exchange
 for species   1 augmentation radius   0.816 (default was   0.816)
 error exchange integrals (PW-AE in eV) (mean, max) 3.04129.020 density error[0,qmax] 0.0124
 Maximum index for augmentation-charges in exchange          767
  SETUP_FOCK is finished

 total amount of memory used by VASP MPI-rank0    37811. kBytes
=======================================================================

   base      :      30000. kBytes
   nonl-proj :       4672. kBytes
   fftplans  :        221. kBytes
   grid      :        789. kBytes
   one-center:         80. kBytes
   HF        :        336. kBytes
   nonlr-proj:        700. kBytes
   wavefun   :       1013. kBytes

     INWAV:  cpu time      0.0864: real time      0.0868
 Broyden mixing: mesh for mixing (old mesh)
   NGX = 15   NGY = 15   NGZ = 15
  (NGX  = 48   NGY  = 48   NGZ  = 48)
  gives a total of   3375 points

 charge density for first step will be calculated from the start-wavefunctions


--------------------------------------------------------------------------------------------------------


 Maximum index for augmentation-charges          367 (set IRDMAX)


--------------------------------------------------------------------------------------------------------


 initial charge from wavefunction
    FEWALD:  cpu time      0.0002: real time      0.0002
 available memory per node:  104.90 GB, setting MAXMEM to    4028

 The Fermi energy was updated, please check that it is located mid-gap
 values below the HOMO (VB) or above the LUMO (CB) will cause erroneous energies
 E-fermi :   2.9583

 Response functions by sum over occupied states:
 ===============================================
   NOMEGA  =    50    number of frequencies
   NOMEGAR =    50    number of frequencies along real axis
   OMEGAMAX= 102.88   maximum frequency
   OMEGAMIN=   0.37   minimum frequency
   OMEGATL = 222.39   maximum frequency of tail
   CSHIFT  =  2.675   complex shift used in evaluation of response functions


 Energies iw=
 ============
    0.000    0.000    1.800    0.000    3.594    0.000    5.377    0.000
    7.142    0.000    8.886    0.000   10.606    0.000   12.299    0.000
   13.964    0.000   15.601    0.000   17.211    0.000   18.795    0.000
   20.355    0.000   21.894    0.000   23.416    0.000   24.925    0.000
   26.423    0.000   27.916    0.000   29.409    0.000   30.907    0.000
   32.414    0.000   33.937    0.000   35.482    0.000   37.056    0.000
   38.666    0.000   40.321    0.000   42.030    0.000   43.802    0.000
   45.650    0.000   47.588    0.000   49.629    0.000   51.793    0.000
   54.101    0.000   56.578    0.000   59.254    0.000   62.166    0.000
   65.359    0.000   68.888    0.000   72.825    0.000   77.258    0.000
   82.303    0.000   88.112    0.000   94.889    0.000  102.913    0.000
  112.581    0.000  124.465    0.000  139.435    0.000  158.872    0.000
  185.102    0.000  222.391    0.000


IMPORTANT INFORMATION: All symmetrisations will be switched off!
NOSYMM: (Re-)initialisation of all symmetry stuff for point group C_1.


 KPOINTS: KMESH

Automatic generation of k-mesh.
 -----------------------------------------------------------------------------
|                                                                             |
|           W    W    AA    RRRRR   N    N  II  N    N   GGGG   !!!           |
|           W    W   A  A   R    R  NN   N  II  NN   N  G    G  !!!           |
|           W    W  A    A  R    R  N N  N  II  N N  N  G       !!!           |
|           W WW W  AAAAAA  RRRRR   N  N N  II  N  N N  G  GGG   !            |
|           WW  WW  A    A  R   R   N   NN  II  N   NN  G    G                |
|           W    W  A    A  R    R  N    N  II  N    N   GGGG   !!!           |
|                                                                             |
|     Full k-point grid generated. Inversion symmetry is not applied.         |
|                                                                             |
 -----------------------------------------------------------------------------

Space group operators:
 irot       det(A)        alpha          n_x          n_y          n_z        tau_x        tau_y        tau_z
    1     1.000000     0.000000     1.000000     0.000000     0.000000     0.000000     0.000000     0.000000

 Subroutine IBZKPT returns following result:
 ===========================================

 Found    216 irreducible k-points:

 Following reciprocal coordinates:
            Coordinates               Weight
  0.000000  0.000000  0.000000      1.000000
  0.166667  0.000000  0.000000      1.000000
 -0.166667  0.000000  0.000000      1.000000
  0.000000  0.166667  0.000000      1.000000
  0.000000 -0.166667  0.000000      1.000000
  0.000000  0.000000  0.166667      1.000000
  0.000000  0.000000 -0.166667      1.000000
  0.166667  0.166667  0.166667      1.000000
 -0.166667 -0.166667 -0.166667      1.000000
  0.333333  0.000000  0.000000      1.000000
 -0.333333  0.000000  0.000000      1.000000
  0.000000  0.333333  0.000000      1.000000
  0.000000 -0.333333  0.000000      1.000000
  0.000000  0.000000  0.333333      1.000000
  0.000000  0.000000 -0.333333      1.000000
  0.333333  0.333333  0.333333      1.000000
 -0.333333 -0.333333 -0.333333      1.000000
  0.500000  0.000000  0.000000      1.000000
  0.000000  0.500000  0.000000      1.000000
  0.000000  0.000000  0.500000      1.000000
  0.500000  0.500000  0.500000      1.000000
  0.166667  0.166667  0.000000      1.000000
 -0.166667 -0.166667  0.000000      1.000000
  0.000000  0.166667  0.166667      1.000000
  0.000000 -0.166667 -0.166667      1.000000
  0.166667  0.000000  0.166667      1.000000
 -0.166667  0.000000 -0.166667      1.000000
  0.333333  0.166667  0.000000      1.000000
 -0.333333 -0.166667  0.000000      1.000000
  0.000000  0.333333  0.166667      1.000000
  0.000000 -0.333333 -0.166667      1.000000
  0.166667  0.000000  0.333333      1.000000
 -0.166667  0.000000 -0.333333      1.000000
  0.166667  0.166667 -0.166667      1.000000
 -0.166667 -0.166667  0.166667      1.000000
  0.333333  0.166667  0.333333      1.000000
 -0.333333 -0.166667 -0.333333      1.000000
  0.166667  0.333333  0.000000      1.000000
 -0.166667 -0.333333  0.000000      1.000000
  0.166667 -0.166667 -0.166667      1.000000
 -0.166667  0.166667  0.166667      1.000000
  0.333333  0.333333  0.166667      1.000000
 -0.333333 -0.333333 -0.166667      1.000000
  0.000000  0.166667  0.333333      1.000000
  0.000000 -0.166667 -0.333333      1.000000
 -0.166667  0.166667 -0.166667      1.000000
  0.166667 -0.166667  0.166667      1.000000
  0.166667  0.333333  0.333333      1.000000
 -0.166667 -0.333333 -0.333333      1.000000
  0.333333  0.000000  0.166667      1.000000
 -0.333333  0.000000 -0.166667      1.000000
  0.500000  0.166667  0.000000      1.000000
  0.500000 -0.166667  0.000000      1.000000
  0.000000  0.500000  0.166667      1.000000
  0.000000  0.500000 -0.166667      1.000000
  0.166667  0.000000  0.500000      1.000000
 -0.166667  0.000000  0.500000      1.000000
  0.166667  0.166667 -0.333333      1.000000
 -0.166667 -0.166667  0.333333      1.000000
  0.500000  0.333333  0.500000      1.000000
  0.500000 -0.333333  0.500000      1.000000
  0.166667  0.500000  0.000000      1.000000
 -0.166667  0.500000  0.000000      1.000000
  0.333333 -0.166667 -0.166667      1.000000
 -0.333333  0.166667  0.166667      1.000000
  0.500000  0.500000  0.333333      1.000000
  0.500000  0.500000 -0.333333      1.000000
  0.000000  0.166667  0.500000      1.000000
  0.000000 -0.166667  0.500000      1.000000
 -0.166667  0.333333 -0.166667      1.000000
  0.166667 -0.333333  0.166667      1.000000
  0.333333  0.500000  0.500000      1.000000
 -0.333333  0.500000  0.500000      1.000000
  0.500000  0.000000  0.166667      1.000000
  0.500000  0.000000 -0.166667      1.000000
 -0.333333  0.166667  0.000000      1.000000
  0.333333 -0.166667  0.000000      1.000000
  0.000000 -0.333333  0.166667      1.000000
  0.000000  0.333333 -0.166667      1.000000
  0.166667  0.000000 -0.333333      1.000000
 -0.166667  0.000000  0.333333      1.000000
  0.166667  0.166667  0.500000      1.000000
 -0.166667 -0.166667  0.500000      1.000000
 -0.333333  0.500000 -0.333333      1.000000
  0.333333  0.500000  0.333333      1.000000
  0.166667 -0.333333  0.000000      1.000000
 -0.166667  0.333333  0.000000      1.000000
  0.500000 -0.166667 -0.166667      1.000000
  0.500000  0.166667  0.166667      1.000000
 -0.333333 -0.333333  0.500000      1.000000
  0.333333  0.333333  0.500000      1.000000
  0.000000  0.166667 -0.333333      1.000000
  0.000000 -0.166667  0.333333      1.000000
 -0.166667  0.500000 -0.166667      1.000000
  0.166667  0.500000  0.166667      1.000000
  0.500000 -0.333333 -0.333333      1.000000
  0.500000  0.333333  0.333333      1.000000
 -0.333333  0.000000  0.166667      1.000000
  0.333333  0.000000 -0.166667      1.000000
 -0.166667  0.166667  0.000000      1.000000
  0.166667 -0.166667  0.000000      1.000000
  0.000000 -0.166667  0.166667      1.000000
  0.000000  0.166667 -0.166667      1.000000
  0.166667  0.000000 -0.166667      1.000000
 -0.166667  0.000000  0.166667      1.000000
  0.166667  0.166667  0.333333      1.000000
 -0.166667 -0.166667 -0.333333      1.000000
 -0.166667 -0.333333 -0.166667      1.000000
  0.166667  0.333333  0.166667      1.000000
 -0.333333 -0.166667 -0.166667      1.000000
  0.333333  0.166667  0.166667      1.000000
  0.333333  0.333333  0.000000      1.000000
 -0.333333 -0.333333  0.000000      1.000000
  0.000000  0.333333  0.333333      1.000000
  0.000000 -0.333333 -0.333333      1.000000
  0.333333  0.000000  0.333333      1.000000
 -0.333333  0.000000 -0.333333      1.000000
  0.500000  0.333333  0.000000      1.000000
  0.500000 -0.333333  0.000000      1.000000
  0.000000  0.500000  0.333333      1.000000
  0.000000  0.500000 -0.333333      1.000000
  0.333333  0.000000  0.500000      1.000000
 -0.333333  0.000000  0.500000      1.000000
  0.333333  0.333333 -0.166667      1.000000
 -0.333333 -0.333333  0.166667      1.000000
  0.500000  0.166667  0.500000      1.000000
  0.500000 -0.166667  0.500000      1.000000
  0.333333  0.500000  0.000000      1.000000
 -0.333333  0.500000  0.000000      1.000000
  0.166667 -0.333333 -0.333333      1.000000
 -0.166667  0.333333  0.333333      1.000000
  0.500000  0.500000  0.166667      1.000000
  0.500000  0.500000 -0.166667      1.000000
  0.000000  0.333333  0.500000      1.000000
  0.000000 -0.333333  0.500000      1.000000
 -0.333333  0.166667 -0.333333      1.000000
  0.333333 -0.166667  0.333333      1.000000
  0.166667  0.500000  0.500000      1.000000
 -0.166667  0.500000  0.500000      1.000000
  0.500000  0.000000  0.333333      1.000000
  0.500000  0.000000 -0.333333      1.000000
 -0.333333  0.333333  0.000000      1.000000
  0.333333 -0.333333  0.000000      1.000000
  0.000000 -0.333333  0.333333      1.000000
  0.000000  0.333333 -0.333333      1.000000
  0.333333  0.000000 -0.333333      1.000000
 -0.333333  0.000000  0.333333      1.000000
  0.333333  0.333333 -0.333333      1.000000
 -0.333333 -0.333333  0.333333      1.000000
 -0.333333  0.333333 -0.333333      1.000000
  0.333333 -0.333333  0.333333      1.000000
  0.333333 -0.333333 -0.333333      1.000000
 -0.333333  0.333333  0.333333      1.000000
  0.500000  0.500000  0.000000      1.000000
  0.000000  0.500000  0.500000      1.000000
  0.500000  0.000000  0.500000      1.000000
  0.500000  0.333333  0.166667      1.000000
  0.500000 -0.333333 -0.166667      1.000000
  0.166667  0.500000  0.333333      1.000000
 -0.166667  0.500000 -0.333333      1.000000
  0.333333  0.166667  0.500000      1.000000
 -0.333333 -0.166667  0.500000      1.000000
  0.333333  0.166667 -0.166667      1.000000
 -0.333333 -0.166667  0.166667      1.000000
  0.500000  0.166667  0.333333      1.000000
  0.500000 -0.166667 -0.333333      1.000000
  0.166667 -0.333333 -0.166667      1.000000
 -0.166667  0.333333  0.166667      1.000000
  0.166667  0.333333 -0.166667      1.000000
 -0.166667 -0.333333  0.166667      1.000000
  0.166667 -0.166667 -0.333333      1.000000
 -0.166667  0.166667  0.333333      1.000000
  0.333333  0.500000  0.166667      1.000000
 -0.333333  0.500000 -0.166667      1.000000
 -0.166667  0.166667 -0.333333      1.000000
  0.166667 -0.166667  0.333333      1.000000
 -0.333333  0.166667 -0.166667      1.000000
  0.333333 -0.166667  0.166667      1.000000
  0.166667  0.333333  0.500000      1.000000
 -0.166667 -0.333333  0.500000      1.000000
 -0.333333  0.333333  0.166667      1.000000
  0.333333 -0.333333 -0.166667      1.000000
  0.166667 -0.333333  0.333333      1.000000
 -0.166667  0.333333 -0.333333      1.000000
  0.333333  0.166667 -0.333333      1.000000
 -0.333333 -0.166667  0.333333      1.000000
 -0.333333  0.333333  0.500000      1.000000
  0.333333 -0.333333  0.500000      1.000000
  0.166667  0.500000 -0.166667      1.000000
 -0.166667  0.500000  0.166667      1.000000
  0.333333 -0.166667 -0.333333      1.000000
 -0.333333  0.166667  0.333333      1.000000
  0.500000 -0.333333  0.333333      1.000000
  0.500000  0.333333 -0.333333      1.000000
 -0.166667  0.166667  0.500000      1.000000
  0.166667 -0.166667  0.500000      1.000000
 -0.333333  0.333333 -0.166667      1.000000
  0.333333 -0.333333  0.166667      1.000000
  0.333333  0.500000 -0.333333      1.000000
 -0.333333  0.500000  0.333333      1.000000
  0.500000 -0.166667  0.166667      1.000000
  0.500000  0.166667 -0.166667      1.000000
 -0.166667 -0.333333  0.333333      1.000000
  0.166667  0.333333 -0.333333      1.000000
 -0.333333  0.500000  0.166667      1.000000
  0.333333  0.500000 -0.166667      1.000000
  0.166667 -0.333333  0.500000      1.000000
 -0.166667  0.333333  0.500000      1.000000
  0.500000  0.166667 -0.333333      1.000000
  0.500000 -0.166667  0.333333      1.000000
  0.500000  0.333333 -0.166667      1.000000
  0.500000 -0.333333  0.166667      1.000000
 -0.333333  0.166667  0.500000      1.000000
  0.333333 -0.166667  0.500000      1.000000
  0.166667  0.500000 -0.333333      1.000000
 -0.166667  0.500000  0.333333      1.000000

 Following cartesian coordinates:
            Coordinates               Weight
  0.000000  0.000000  0.000000      1.000000
  0.043099 -0.024883 -0.017595      1.000000
 -0.043099  0.024883  0.017595      1.000000
  0.000000  0.049766 -0.017595      1.000000
  0.000000 -0.049766  0.017595      1.000000
  0.000000  0.000000  0.052785      1.000000
  0.000000  0.000000 -0.052785      1.000000
  0.043099  0.024883  0.017595      1.000000
 -0.043099 -0.024883 -0.017595      1.000000
  0.086197 -0.049766 -0.035190      1.000000
 -0.086197  0.049766  0.035190      1.000000
  0.000000  0.099532 -0.035190      1.000000
  0.000000 -0.099532  0.035190      1.000000
  0.000000  0.000000  0.105570      1.000000
  0.000000  0.000000 -0.105570      1.000000
  0.086197  0.049766  0.035190      1.000000
 -0.086197 -0.049766 -0.035190      1.000000
  0.129296 -0.074649 -0.052785      1.000000
  0.000000  0.149298 -0.052785      1.000000
  0.000000  0.000000  0.158355      1.000000
  0.129296  0.074649  0.052785      1.000000
  0.043099  0.024883 -0.035190      1.000000
 -0.043099 -0.024883  0.035190      1.000000
  0.000000  0.049766  0.035190      1.000000
  0.000000 -0.049766 -0.035190      1.000000
  0.043099 -0.024883  0.035190      1.000000
 -0.043099  0.024883 -0.035190      1.000000
  0.086197 -0.000000 -0.052785      1.000000
 -0.086197  0.000000  0.052785      1.000000
  0.000000  0.099532  0.017595      1.000000
  0.000000 -0.099532 -0.017595      1.000000
  0.043099 -0.024883  0.087975      1.000000
 -0.043099  0.024883 -0.087975      1.000000
  0.043099  0.024883 -0.087975      1.000000
 -0.043099 -0.024883  0.087975      1.000000
  0.086197  0.000000  0.052785      1.000000
 -0.086197 -0.000000 -0.052785      1.000000
  0.043099  0.074649 -0.052785      1.000000
 -0.043099 -0.074649  0.052785      1.000000
  0.043099 -0.074649 -0.052785      1.000000
 -0.043099  0.074649  0.052785      1.000000
  0.086197  0.049766 -0.017595      1.000000
 -0.086197 -0.049766  0.017595      1.000000
  0.000000  0.049766  0.087975      1.000000
  0.000000 -0.049766 -0.087975      1.000000
 -0.043099  0.074649 -0.052785      1.000000
  0.043099 -0.074649  0.052785      1.000000
  0.043099  0.074649  0.052785      1.000000
 -0.043099 -0.074649 -0.052785      1.000000
  0.086197 -0.049766  0.017595      1.000000
 -0.086197  0.049766 -0.017595      1.000000
  0.129296 -0.024883 -0.070380      1.000000
  0.129296 -0.124415 -0.035190      1.000000
  0.000000  0.149298 -0.000000      1.000000
  0.000000  0.149298 -0.105570      1.000000
  0.043099 -0.024883  0.140760      1.000000
 -0.043099  0.024883  0.175950      1.000000
  0.043099  0.024883 -0.140760      1.000000
 -0.043099 -0.024883  0.140760      1.000000
  0.129296  0.024883  0.070380      1.000000
  0.129296 -0.174181  0.140760      1.000000
  0.043099  0.124415 -0.070380      1.000000
 -0.043099  0.174181 -0.035190      1.000000
  0.086197 -0.099532 -0.070380      1.000000
 -0.086197  0.099532  0.070380      1.000000
  0.129296  0.074649 -0.000000      1.000000
  0.129296  0.074649 -0.211140      1.000000
  0.000000  0.049766  0.140760      1.000000
  0.000000 -0.049766  0.175950      1.000000
 -0.043099  0.124415 -0.070380      1.000000
  0.043099 -0.124415  0.070380      1.000000
  0.086197  0.099532  0.070380      1.000000
 -0.086197  0.199065  0.140760      1.000000
  0.129296 -0.074649  0.000000      1.000000
  0.129296 -0.074649 -0.105570      1.000000
 -0.086197  0.099532  0.017595      1.000000
  0.086197 -0.099532 -0.017595      1.000000
  0.000000 -0.099532  0.087975      1.000000
  0.000000  0.099532 -0.087975      1.000000
  0.043099 -0.024883 -0.123165      1.000000
 -0.043099  0.024883  0.123165      1.000000
  0.043099  0.024883  0.123165      1.000000
 -0.043099 -0.024883  0.193545      1.000000
 -0.086197  0.199065 -0.123165      1.000000
  0.086197  0.099532  0.017595      1.000000
  0.043099 -0.124415  0.017595      1.000000
 -0.043099  0.124415 -0.017595      1.000000
  0.129296 -0.124415 -0.087975      1.000000
  0.129296 -0.024883 -0.017595      1.000000
 -0.086197 -0.049766  0.228735      1.000000
  0.086197  0.049766  0.087975      1.000000
  0.000000  0.049766 -0.123165      1.000000
  0.000000 -0.049766  0.123165      1.000000
 -0.043099  0.174181 -0.087975      1.000000
  0.043099  0.124415 -0.017595      1.000000
  0.129296 -0.174181 -0.123165      1.000000
  0.129296  0.024883  0.017595      1.000000
 -0.086197  0.049766  0.087975      1.000000
  0.086197 -0.049766 -0.087975      1.000000
 -0.043099  0.074649 -0.000000      1.000000
  0.043099 -0.074649  0.000000      1.000000
  0.000000 -0.049766  0.070380      1.000000
  0.000000  0.049766 -0.070380      1.000000
  0.043099 -0.024883 -0.070380      1.000000
 -0.043099  0.024883  0.070380      1.000000
  0.043099  0.024883  0.070380      1.000000
 -0.043099 -0.024883 -0.070380      1.000000
 -0.043099 -0.074649  0.000000      1.000000
  0.043099  0.074649 -0.000000      1.000000
 -0.086197  0.000000  0.000000      1.000000
  0.086197  0.000000  0.000000      1.000000
  0.086197  0.049766 -0.070380      1.000000
 -0.086197 -0.049766  0.070380      1.000000
  0.000000  0.099532  0.070380      1.000000
  0.000000 -0.099532 -0.070380      1.000000
  0.086197 -0.049766  0.070380      1.000000
 -0.086197  0.049766 -0.070380      1.000000
  0.129296  0.024883 -0.087975      1.000000
  0.129296 -0.174181 -0.017595      1.000000
  0.000000  0.149298  0.052785      1.000000
  0.000000  0.149298 -0.158355      1.000000
  0.086197 -0.049766  0.123165      1.000000
 -0.086197  0.049766  0.193545      1.000000
  0.086197  0.049766 -0.123165      1.000000
 -0.086197 -0.049766  0.123165      1.000000
  0.129296 -0.024883  0.087975      1.000000
  0.129296 -0.124415  0.123165      1.000000
  0.086197  0.099532 -0.087975      1.000000
 -0.086197  0.199065 -0.017595      1.000000
  0.043099 -0.124415 -0.087975      1.000000
 -0.043099  0.124415  0.087975      1.000000
  0.129296  0.074649 -0.052785      1.000000
  0.129296  0.074649 -0.158355      1.000000
  0.000000  0.099532  0.123165      1.000000
  0.000000 -0.099532  0.193545      1.000000
 -0.086197  0.099532 -0.087975      1.000000
  0.086197 -0.099532  0.087975      1.000000
  0.043099  0.124415  0.087975      1.000000
 -0.043099  0.174181  0.123165      1.000000
  0.129296 -0.074649  0.052785      1.000000
  0.129296 -0.074649 -0.158355      1.000000
 -0.086197  0.149298 -0.000000      1.000000
  0.086197 -0.149298  0.000000      1.000000
  0.000000 -0.099532  0.140760      1.000000
  0.000000  0.099532 -0.140760      1.000000
  0.086197 -0.049766 -0.140760      1.000000
 -0.086197  0.049766  0.140760      1.000000
  0.086197  0.049766 -0.175950      1.000000
 -0.086197 -0.049766  0.175950      1.000000
 -0.086197  0.149298 -0.105570      1.000000
  0.086197 -0.149298  0.105570      1.000000
  0.086197 -0.149298 -0.105570      1.000000
 -0.086197  0.149298  0.105570      1.000000
  0.129296  0.074649 -0.105570      1.000000
  0.000000  0.149298  0.105570      1.000000
  0.129296 -0.074649  0.105570      1.000000
  0.129296  0.024883 -0.035190      1.000000
  0.129296 -0.174181 -0.070380      1.000000
  0.043099  0.124415  0.035190      1.000000
 -0.043099  0.174181 -0.140760      1.000000
  0.086197 -0.000000  0.105570      1.000000
 -0.086197  0.000000  0.211140      1.000000
  0.086197  0.000000 -0.105570      1.000000
 -0.086197 -0.000000  0.105570      1.000000
  0.129296 -0.024883  0.035190      1.000000
  0.129296 -0.124415 -0.140760      1.000000
  0.043099 -0.124415 -0.035190      1.000000
 -0.043099  0.124415  0.035190      1.000000
  0.043099  0.074649 -0.105570      1.000000
 -0.043099 -0.074649  0.105570      1.000000
  0.043099 -0.074649 -0.105570      1.000000
 -0.043099  0.074649  0.105570      1.000000
  0.086197  0.099532 -0.035190      1.000000
 -0.086197  0.199065 -0.070380      1.000000
 -0.043099  0.074649 -0.105570      1.000000
  0.043099 -0.074649  0.105570      1.000000
 -0.086197  0.099532 -0.035190      1.000000
  0.086197 -0.099532  0.035190      1.000000
  0.043099  0.074649  0.105570      1.000000
 -0.043099 -0.074649  0.211140      1.000000
 -0.086197  0.149298  0.052785      1.000000
  0.086197 -0.149298 -0.052785      1.000000
  0.043099 -0.124415  0.123165      1.000000
 -0.043099  0.124415 -0.123165      1.000000
  0.086197 -0.000000 -0.158355      1.000000
 -0.086197  0.000000  0.158355      1.000000
 -0.086197  0.149298  0.158355      1.000000
  0.086197 -0.149298  0.158355      1.000000
  0.043099  0.124415 -0.123165      1.000000
 -0.043099  0.174181  0.017595      1.000000
  0.086197 -0.099532 -0.123165      1.000000
 -0.086197  0.099532  0.123165      1.000000
  0.129296 -0.174181  0.087975      1.000000
  0.129296  0.024883 -0.193545      1.000000
 -0.043099  0.074649  0.158355      1.000000
  0.043099 -0.074649  0.158355      1.000000
 -0.086197  0.149298 -0.052785      1.000000
  0.086197 -0.149298  0.052785      1.000000
  0.086197  0.099532 -0.193545      1.000000
 -0.086197  0.199065  0.087975      1.000000
  0.129296 -0.124415  0.017595      1.000000
  0.129296 -0.024883 -0.123165      1.000000
 -0.043099 -0.074649  0.158355      1.000000
  0.043099  0.074649 -0.158355      1.000000
 -0.086197  0.199065  0.035190      1.000000
  0.086197  0.099532 -0.140760      1.000000
  0.043099 -0.124415  0.175950      1.000000
 -0.043099  0.124415  0.140760      1.000000
  0.129296 -0.024883 -0.175950      1.000000
  0.129296 -0.124415  0.070380      1.000000
  0.129296  0.024883 -0.140760      1.000000
  0.129296 -0.174181  0.035190      1.000000
 -0.086197  0.099532  0.175950      1.000000
  0.086197 -0.099532  0.140760      1.000000
  0.043099  0.124415 -0.175950      1.000000
 -0.043099  0.174181  0.070380      1.000000

 files read and symmetry switched off, memory is now:
 total amount of memory used by VASP MPI-rank0   131651. kBytes
=======================================================================

   base      :      30000. kBytes
   nonl-proj :      62579. kBytes
   fftplans  :        221. kBytes
   grid      :        789. kBytes
   one-center:         80. kBytes
   HF        :        336. kBytes
   nonlr-proj:        700. kBytes
   wavefun   :      13685. kBytes
   fock_wrk  :      23261. kBytes

 Basis sets for responsefunctions:
 =================================
 k-point   1 :   0.0000 0.0000 0.0000  plane waves:     645
 k-point   2 :   0.1667 0.0000 0.0000  plane waves:     643
 k-point   3 :   0.3333 0.0000 0.0000  plane waves:     646
 k-point   4 :   0.5000 0.0000 0.0000  plane waves:     628
 k-point   5 :   0.1667 0.1667 0.0000  plane waves:     653
 k-point   6 :   0.3333 0.1667 0.0000  plane waves:     642
 k-point   7 :   0.5000 0.1667 0.0000  plane waves:     640
 k-point   8 :  -0.3333 0.1667 0.0000  plane waves:     647
 k-point   9 :  -0.1667 0.1667 0.0000  plane waves:     644
 k-point  10 :   0.3333 0.3333 0.0000  plane waves:     644
 k-point  11 :   0.5000 0.3333 0.0000  plane waves:     650
 k-point  12 :  -0.3333 0.3333 0.0000  plane waves:     650
 k-point  13 :   0.5000 0.5000 0.0000  plane waves:     636
 k-point  14 :   0.5000 0.3333 0.1667  plane waves:     656
 k-point  15 :  -0.3333 0.3333 0.1667  plane waves:     656
 k-point  16 :  -0.3333 0.5000 0.1667  plane waves:     654
 k-point  17 :  -0.1667-0.0000-0.0000  plane waves:     643
 k-point  18 :   0.0000 0.1667 0.0000  plane waves:     643
 k-point  19 :  -0.0000-0.1667-0.0000  plane waves:     643
 k-point  20 :   0.0000 0.0000 0.1667  plane waves:     643
 k-point  21 :  -0.0000-0.0000-0.1667  plane waves:     643
 k-point  22 :   0.1667 0.1667 0.1667  plane waves:     643
 k-point  23 :  -0.1667-0.1667-0.1667  plane waves:     643
 k-point  24 :  -0.3333-0.0000-0.0000  plane waves:     646
 k-point  25 :   0.0000 0.3333 0.0000  plane waves:     646
 k-point  26 :  -0.0000-0.3333-0.0000  plane waves:     646
 k-point  27 :   0.0000 0.0000 0.3333  plane waves:     646
 k-point  28 :  -0.0000-0.0000-0.3333  plane waves:     646
 k-point  29 :   0.3333 0.3333 0.3333  plane waves:     646
 k-point  30 :  -0.3333-0.3333-0.3333  plane waves:     646
 k-point  31 :   0.0000 0.5000 0.0000  plane waves:     628
 k-point  32 :   0.0000 0.0000 0.5000  plane waves:     628
 k-point  33 :  -0.5000-0.5000-0.5000  plane waves:     628
 k-point  34 :  -0.1667-0.1667 0.0000  plane waves:     653
 k-point  35 :   0.0000 0.1667 0.1667  plane waves:     653
 k-point  36 :   0.0000-0.1667-0.1667  plane waves:     653
 k-point  37 :   0.1667 0.0000 0.1667  plane waves:     653
 k-point  38 :  -0.1667 0.0000-0.1667  plane waves:     653
 k-point  39 :  -0.3333-0.1667-0.0000  plane waves:     642
 k-point  40 :   0.0000 0.3333 0.1667  plane waves:     642
 k-point  41 :  -0.0000-0.3333-0.1667  plane waves:     642
 k-point  42 :   0.1667 0.0000 0.3333  plane waves:     642
 k-point  43 :  -0.1667-0.0000-0.3333  plane waves:     642
 k-point  44 :   0.1667 0.1667-0.1667  plane waves:     642
 k-point  45 :  -0.1667-0.1667 0.1667  plane waves:     642
 k-point  46 :   0.3333 0.1667 0.3333  plane waves:     642
 k-point  47 :  -0.3333-0.1667-0.3333  plane waves:     642
 k-point  48 :   0.1667 0.3333-0.0000  plane waves:     642
 k-point  49 :  -0.1667-0.3333 0.0000  plane waves:     642
 k-point  50 :   0.1667-0.1667-0.1667  plane waves:     642
 k-point  51 :  -0.1667 0.1667 0.1667  plane waves:     642
 k-point  52 :   0.3333 0.3333 0.1667  plane waves:     642
 k-point  53 :  -0.3333-0.3333-0.1667  plane waves:     642
 k-point  54 :  -0.0000 0.1667 0.3333  plane waves:     642
 k-point  55 :   0.0000-0.1667-0.3333  plane waves:     642
 k-point  56 :  -0.1667 0.1667-0.1667  plane waves:     642
 k-point  57 :   0.1667-0.1667 0.1667  plane waves:     642
 k-point  58 :   0.1667 0.3333 0.3333  plane waves:     642
 k-point  59 :  -0.1667-0.3333-0.3333  plane waves:     642
 k-point  60 :   0.3333-0.0000 0.1667  plane waves:     642
 k-point  61 :  -0.3333 0.0000-0.1667  plane waves:     642
 k-point  62 :  -0.5000-0.1667-0.0000  plane waves:     640
 k-point  63 :   0.0000 0.5000 0.1667  plane waves:     640
 k-point  64 :  -0.0000-0.5000-0.1667  plane waves:     640
 k-point  65 :   0.1667 0.0000 0.5000  plane waves:     640
 k-point  66 :  -0.1667-0.0000-0.5000  plane waves:     640
 k-point  67 :   0.1667 0.1667-0.3333  plane waves:     640
 k-point  68 :  -0.1667-0.1667 0.3333  plane waves:     640
 k-point  69 :   0.5000 0.3333 0.5000  plane waves:     640
 k-point  70 :  -0.5000-0.3333-0.5000  plane waves:     640
 k-point  71 :   0.1667 0.5000-0.0000  plane waves:     640
 k-point  72 :  -0.1667-0.5000 0.0000  plane waves:     640
 k-point  73 :   0.3333-0.1667-0.1667  plane waves:     640
 k-point  74 :  -0.3333 0.1667 0.1667  plane waves:     640
 k-point  75 :   0.5000 0.5000 0.3333  plane waves:     640
 k-point  76 :  -0.5000-0.5000-0.3333  plane waves:     640
 k-point  77 :  -0.0000 0.1667 0.5000  plane waves:     640
 k-point  78 :   0.0000-0.1667-0.5000  plane waves:     640
 k-point  79 :  -0.1667 0.3333-0.1667  plane waves:     640
 k-point  80 :   0.1667-0.3333 0.1667  plane waves:     640
 k-point  81 :   0.3333 0.5000 0.5000  plane waves:     640
 k-point  82 :  -0.3333-0.5000-0.5000  plane waves:     640
 k-point  83 :   0.5000-0.0000 0.1667  plane waves:     640
 k-point  84 :  -0.5000 0.0000-0.1667  plane waves:     640
 k-point  85 :   0.3333-0.1667-0.0000  plane waves:     647
 k-point  86 :   0.0000-0.3333 0.1667  plane waves:     647
 k-point  87 :  -0.0000 0.3333-0.1667  plane waves:     647
 k-point  88 :   0.1667 0.0000-0.3333  plane waves:     647
 k-point  89 :  -0.1667-0.0000 0.3333  plane waves:     647
 k-point  90 :   0.1667 0.1667 0.5000  plane waves:     647
 k-point  91 :  -0.1667-0.1667-0.5000  plane waves:     647
 k-point  92 :  -0.3333-0.5000-0.3333  plane waves:     647
 k-point  93 :   0.3333 0.5000 0.3333  plane waves:     647
 k-point  94 :   0.1667-0.3333-0.0000  plane waves:     647
 k-point  95 :  -0.1667 0.3333 0.0000  plane waves:     647
 k-point  96 :  -0.5000-0.1667-0.1667  plane waves:     647
 k-point  97 :   0.5000 0.1667 0.1667  plane waves:     647
 k-point  98 :  -0.3333-0.3333-0.5000  plane waves:     647
 k-point  99 :   0.3333 0.3333 0.5000  plane waves:     647
 k-point 100 :  -0.0000 0.1667-0.3333  plane waves:     647
 k-point 101 :   0.0000-0.1667 0.3333  plane waves:     647
 k-point 102 :  -0.1667-0.5000-0.1667  plane waves:     647
 k-point 103 :   0.1667 0.5000 0.1667  plane waves:     647
 k-point 104 :  -0.5000-0.3333-0.3333  plane waves:     647
 k-point 105 :   0.5000 0.3333 0.3333  plane waves:     647
 k-point 106 :  -0.3333-0.0000 0.1667  plane waves:     647
 k-point 107 :   0.3333 0.0000-0.1667  plane waves:     647
 k-point 108 :   0.1667-0.1667-0.0000  plane waves:     644
 k-point 109 :   0.0000-0.1667 0.1667  plane waves:     644
 k-point 110 :  -0.0000 0.1667-0.1667  plane waves:     644
 k-point 111 :   0.1667 0.0000-0.1667  plane waves:     644
 k-point 112 :  -0.1667-0.0000 0.1667  plane waves:     644
 k-point 113 :   0.1667 0.1667 0.3333  plane waves:     644
 k-point 114 :  -0.1667-0.1667-0.3333  plane waves:     644
 k-point 115 :  -0.1667-0.3333-0.1667  plane waves:     644
 k-point 116 :   0.1667 0.3333 0.1667  plane waves:     644
 k-point 117 :  -0.3333-0.1667-0.1667  plane waves:     644
 k-point 118 :   0.3333 0.1667 0.1667  plane waves:     644
 k-point 119 :  -0.3333-0.3333 0.0000  plane waves:     644
 k-point 120 :   0.0000 0.3333 0.3333  plane waves:     644
 k-point 121 :   0.0000-0.3333-0.3333  plane waves:     644
 k-point 122 :   0.3333 0.0000 0.3333  plane waves:     644
 k-point 123 :  -0.3333 0.0000-0.3333  plane waves:     644
 k-point 124 :  -0.5000-0.3333-0.0000  plane waves:     650
 k-point 125 :   0.0000 0.5000 0.3333  plane waves:     650
 k-point 126 :  -0.0000-0.5000-0.3333  plane waves:     650
 k-point 127 :   0.3333 0.0000 0.5000  plane waves:     650
 k-point 128 :  -0.3333-0.0000-0.5000  plane waves:     650
 k-point 129 :   0.3333 0.3333-0.1667  plane waves:     650
 k-point 130 :  -0.3333-0.3333 0.1667  plane waves:     650
 k-point 131 :   0.5000 0.1667 0.5000  plane waves:     650
 k-point 132 :  -0.5000-0.1667-0.5000  plane waves:     650
 k-point 133 :   0.3333 0.5000-0.0000  plane waves:     650
 k-point 134 :  -0.3333-0.5000 0.0000  plane waves:     650
 k-point 135 :   0.1667-0.3333-0.3333  plane waves:     650
 k-point 136 :  -0.1667 0.3333 0.3333  plane waves:     650
 k-point 137 :   0.5000 0.5000 0.1667  plane waves:     650
[...]
      3     -97.5091     -97.6827     -47.3386     -50.4143     -57.2733       0.7120       2.0000       1.5175
      4     -97.5091     -97.6827     -47.3386     -50.4143     -57.2733       0.7120       2.0000       1.5175
      5     -97.5042     -97.6782     -47.3443     -50.4028     -57.2785       0.7163       2.0000       1.5165
      6     -97.4976     -97.6702     -47.3524     -50.3863     -57.2857       0.7162       2.0000       1.5152
      7     -97.4907     -97.6668     -47.3596     -50.3752     -57.2919       0.7214       2.0000       1.5138
      8     -97.4907     -97.6668     -47.3596     -50.3752     -57.2919       0.7214       2.0000       1.5138
      9      -8.4399      -8.4452     -13.2487       4.8020     -17.8087       0.7780       2.0000       1.9073
     10      -4.0599      -4.0627     -13.2725       9.2090     -16.2716       0.7819       2.0000       1.0913
     11      -1.7262      -1.7268     -11.7837      10.0567     -13.7119       0.7934       2.0000       0.7057
     12      -0.3320      -0.3320     -12.1492      11.8173     -13.6353       0.7949       2.0000       0.5504
     13       6.1411       6.1446      -9.8351      15.9806      -6.1649       0.8036       0.0000      -0.6352
     14       7.0368       7.0406      -9.1551      16.1966      -5.2667       0.8089       0.0000      -0.6955
     15       7.6545       7.6585     -10.2166      17.8760      -6.1456       0.8003       0.0000      -0.7550
     16      10.7016      10.7066     -10.4129      21.1207      -5.6545       0.8020       0.0000      -1.0641
     17      12.6968      12.7022      -9.7864      22.4899      -4.8080       0.8079       0.0000      -1.1942
     18      13.6133      13.6189      -9.7268      23.3471      -4.4646       0.8070       0.0000      -1.3703
     19      16.9228      16.9288     -10.3614      27.2916      -4.7498       0.8145       0.0000      -1.6815
     20      16.8827      16.8884      -8.2785      25.1681      -2.9687       0.8234       0.0000      -1.5504
     21      17.4494      17.4548      -8.0526      25.5085      -2.9099       0.8282       0.0000      -1.4993
     22      18.8410      18.8467      -9.5168      28.3647      -3.8364       0.8271       0.0000      -1.8791
     23      20.3705      20.3760      -8.4742      28.8512      -2.9579       0.8391       0.0000      -1.8874
     24      21.9376      21.9429      -9.1965      31.1404      -3.3892       0.8514       0.0000      -2.2101
     25      23.7185      23.7236      -9.3579      33.0824      -3.3626       0.8543       0.0000      -2.4365
     26      25.3052      25.3102      -9.9441      35.2551      -3.7601       0.8625       0.0000      -2.6721
     27      24.9554      24.9596      -7.7893      32.7495      -2.3574       0.8719       0.0000      -2.2333
     28      26.7967      26.8005      -8.0890      34.8900      -2.5623       0.8837       0.0000      -2.4525
     29      28.7883      28.7917      -9.5146      38.3066      -3.5466       0.9036       0.0000      -2.9898
     30      28.6808      28.6836      -7.6195      36.3034      -2.2534       0.9036       0.0000      -2.5547
     31      30.5391      30.5419      -6.8012      37.3435      -1.6890       0.8930       0.0000      -2.3415
     32      32.0445      32.0472      -8.3808      40.4283      -2.7186       0.9026       0.0000      -2.9098
     33      32.8548      32.8557      -7.6557      40.5114      -2.3609       0.9302       0.0000      -2.9090
     34      34.5922      34.5924      -7.1268      41.7192      -1.9675       0.9342       0.0000      -2.9195
     35      35.9448      35.9445      -7.1916      43.1361      -2.0097       0.9348       0.0000      -2.9930
     36      36.6417      36.6409      -8.0587      44.6995      -2.6002       0.9476       0.0000      -3.3423
     37      37.1887      37.1883      -7.6337      44.8219      -2.3362       0.9353       0.0000      -3.1269
     38      37.9032      37.9021      -7.9265      45.8285      -2.6108       0.9467       0.0000      -3.2942
     39      39.1858      39.1833      -6.9825      46.1657      -2.1218       0.9572       0.0000      -3.1740
     40      42.8415      42.8347      -7.0717      49.9064      -2.3956       0.9981       0.0000      -3.7401
     41      43.3020      43.2970      -6.6209      49.9177      -1.9448       0.9708       0.0000      -3.3865
     42      43.7664      43.7627      -6.2112      49.9737      -1.5557       0.9471       0.0000      -3.1007
     43      44.7480      44.7431      -6.8074      51.5503      -2.0095       0.9570       0.0000      -3.3599
     44      45.1579      45.1536      -6.6562      51.8096      -1.8549       0.9455       0.0000      -3.2165
     45      48.2869      48.2803      -7.1174      55.3974      -2.3657       0.9633       0.0000      -3.7248
     46      48.1442      48.1384      -6.5317      54.6698      -1.9647       0.9535       0.0000      -3.5541
     47      48.8481      48.8420      -6.9473      55.7891      -2.2120       0.9539       0.0000      -3.5766
     48      49.3137      49.3080      -5.9090      55.2167      -1.5077       0.9550       0.0000      -3.3170

 k-point  15 :      -0.3333    0.3333    0.1667
  band No. old QP-enery  QP-energies   sigma(KS)   T+V_ion+V_H  V^pw_x(r,r')   Z            occupation Imag(sigma)

      1    -149.2408    -149.5424     -55.9013     -93.7613     -65.9692       0.7151       2.0000       2.0403
      2    -149.2408    -149.5424     -55.9013     -93.7613     -65.9692       0.7151       2.0000       2.0403
      3     -97.5089     -97.6841     -47.3389     -50.4155     -57.2733       0.7138       2.0000       1.5174
      4     -97.5089     -97.6841     -47.3389     -50.4155     -57.2733       0.7138       2.0000       1.5174
      5     -97.5052     -97.6764     -47.3449     -50.3997     -57.2796       0.7150       2.0000       1.5167
      6     -97.4983     -97.6715     -47.3511     -50.3892     -57.2845       0.7160       2.0000       1.5153
      7     -97.4949     -97.6646     -47.3579     -50.3738     -57.2917       0.7166       2.0000       1.5147
      8     -97.4949     -97.6646     -47.3579     -50.3738     -57.2917       0.7166       2.0000       1.5147
      9      -7.3715      -7.3763     -13.4238       6.0460     -17.6415       0.7777       2.0000       1.6870
     10      -5.3686      -5.3721     -13.1083       7.7352     -16.5760       0.7807       2.0000       1.3110
     11      -2.2184      -2.2192     -11.7678       9.5484     -13.8857       0.7928       2.0000       0.7750
     12      -0.8412      -0.8413     -11.9765      11.1351     -13.6171       0.7942       2.0000       0.6013
     13       6.6453       6.6490      -9.3524      16.0023      -5.6134       0.8075       0.0000      -0.6576
     14       6.9226       6.9263     -10.0554      16.9826      -6.1340       0.8025       0.0000      -0.7029
     15       9.5922       9.5969      -9.6131      19.2111      -5.1438       0.8049       0.0000      -0.9274
     16      10.0934      10.0982      -9.9556      20.0551      -5.2214       0.8010       0.0000      -1.0302
     17      11.2050      11.2102     -10.2279      21.4394      -5.4069       0.8023       0.0000      -1.0966
     18      14.9314      14.9372      -9.8378      24.7763      -4.4234       0.8122       0.0000      -1.5071
     19      15.7648      15.7707      -9.8285      25.6005      -4.4165       0.8127       0.0000      -1.5301
     20      16.9905      16.9961      -7.9354      24.9326      -2.8184       0.8258       0.0000      -1.4524
     21      20.3289      20.3349     -10.1866      30.5227      -4.1678       0.8296       0.0000      -2.1452
     22      20.9185      20.9242      -9.8362      30.7615      -3.9462       0.8362       0.0000      -2.1405
     23      21.0240      21.0295      -9.2453      30.2759      -3.5415       0.8400       0.0000      -2.0509
     24      21.8975      21.9026      -8.8202      30.7238      -3.1809       0.8517       0.0000      -2.0927
     25      22.3446      22.3496      -7.9659      30.3163      -2.5464       0.8536       0.0000      -1.9786
     26      24.7826      24.7877      -9.6532      34.4418      -3.5155       0.8590       0.0000      -2.6303
     27      25.2051      25.2096      -9.3274      34.5376      -3.3989       0.8749       0.0000      -2.6089
     28      25.6994      25.7040      -8.2667      33.9714      -2.6531       0.8663       0.0000      -2.3074
     29      27.1783      27.1819      -7.9756      35.1579      -2.4568       0.8907       0.0000      -2.5136
     30      29.9690      29.9720      -8.2334      38.2058      -2.6254       0.8982       0.0000      -2.7433
     31      29.8951      29.8972      -7.1315      37.0290      -1.9142       0.9109       0.0000      -2.5717
     32      30.2161      30.2178      -7.3758      37.5937      -2.1526       0.9227       0.0000      -2.6796
     33      32.9391      32.9399      -7.5337      40.4737      -2.3424       0.9300       0.0000      -2.8480
     34      34.0165      34.0172      -7.1242      41.1415      -1.9455       0.9239       0.0000      -2.8122
     35      34.6403      34.6414      -7.3950      42.0365      -2.0901       0.9168       0.0000      -2.8576
     36      35.2129      35.2133      -6.8818      42.0951      -1.7859       0.9240       0.0000      -2.7953
     37      36.0321      36.0321      -7.9129      43.9450      -2.4738       0.9366       0.0000      -3.1538
     38      37.4418      37.4409      -7.4561      44.8969      -2.3091       0.9412       0.0000      -3.0995
     39      38.7021      38.7000      -6.7260      45.4259      -1.8879       0.9513       0.0000      -3.0589
     40      41.6466      41.6436      -7.6188      49.2623      -2.5168       0.9556       0.0000      -3.3958
     41      43.7459      43.7396      -7.5509      51.2903      -2.6379       0.9847       0.0000      -3.8483
     42      45.4723      45.4666      -7.0402      52.5066      -2.2730       0.9623       0.0000      -3.5624
     43      44.9873      44.9832      -6.6982      51.6811      -1.8462       0.9456       0.0000      -3.2652
     44      45.6253      45.6220      -6.6378      52.2595      -1.7636       0.9322       0.0000      -3.0512
     45      48.3378      48.3316      -6.5622      54.8936      -2.0427       0.9543       0.0000      -3.5860
     46      48.3309      48.3245      -6.0192      54.3434      -1.6563       0.9674       0.0000      -3.4550
     47      49.9623      49.9560      -6.7392      56.6949      -2.1082       0.9559       0.0000      -3.6689
     48      50.5152      50.5087      -5.9757      56.4842      -1.6682       0.9678       0.0000      -3.5957

 k-point  16 :      -0.3333    0.5000    0.1667
  band No. old QP-enery  QP-energies   sigma(KS)   T+V_ion+V_H  V^pw_x(r,r')   Z            occupation Imag(sigma)

      1    -149.2423    -149.5403     -55.9004     -93.7595     -65.9689       0.7135       2.0000       2.0406
      2    -149.2423    -149.5403     -55.9004     -93.7595     -65.9689       0.7135       2.0000       2.0406
      3     -97.5108     -97.6832     -47.3378     -50.4152     -57.2729       0.7116       2.0000       1.5179
      4     -97.5108     -97.6832     -47.3378     -50.4152     -57.2729       0.7116       2.0000       1.5179
      5     -97.5015     -97.6738     -47.3481     -50.3940     -57.2821       0.7161       2.0000       1.5160
      6     -97.5015     -97.6738     -47.3481     -50.3940     -57.2821       0.7161       2.0000       1.5160
      7     -97.4931     -97.6655     -47.3587     -50.3737     -57.2920       0.7203       2.0000       1.5143
      8     -97.4931     -97.6655     -47.3587     -50.3737     -57.2920       0.7203       2.0000       1.5143
      9      -6.2988      -6.3030     -13.3830       7.0788     -17.2195       0.7786       2.0000       1.4835
     10      -6.2988      -6.3030     -13.3830       7.0788     -17.2195       0.7786       2.0000       1.4835
     11      -1.8115      -1.8121     -11.7432       9.9310     -13.7004       0.7926       2.0000       0.7133
     12      -1.8115      -1.8121     -11.7432       9.9310     -13.7004       0.7926       2.0000       0.7133
     13       6.0142       6.0177      -9.5137      15.5322      -5.8472       0.8057       0.0000      -0.6285
     14       6.0142       6.0177      -9.5137      15.5322      -5.8472       0.8057       0.0000      -0.6285
     15      10.3405      10.3454      -9.9596      20.3062      -5.2577       0.8025       0.0000      -1.0256
     16      10.3405      10.3454      -9.9596      20.3062      -5.2577       0.8025       0.0000      -1.0256
     17      14.4112      14.4169     -10.2721      24.6904      -4.8708       0.8072       0.0000      -1.4738
     18      14.4112      14.4169     -10.2721      24.6904      -4.8708       0.8072       0.0000      -1.4738
     19      16.8350      16.8409      -9.8579      26.7001      -4.3340       0.8174       0.0000      -1.6410
     20      16.8350      16.8409      -9.8579      26.7001      -4.3340       0.8174       0.0000      -1.6410
     21      20.3799      20.3855      -9.1020      29.4886      -3.4556       0.8363       0.0000      -1.9503
     22      20.3799      20.3855      -9.1020      29.4886      -3.4556       0.8363       0.0000      -1.9503
     23      21.1607      21.1662      -8.8808      30.0480      -3.2041       0.8391       0.0000      -2.0330
     24      21.1607      21.1662      -8.8808      30.0480      -3.2041       0.8391       0.0000      -2.0330
     25      22.5127      22.5175      -7.6118      30.1302      -2.2981       0.8575       0.0000      -1.9359
     26      22.5127      22.5175      -7.6118      30.1302      -2.2981       0.8575       0.0000      -1.9359
     27      25.8552      25.8598      -9.8334      35.6938      -3.6871       0.8731       0.0000      -2.7660
     28      25.8552      25.8598      -9.8334      35.6938      -3.6871       0.8731       0.0000      -2.7660
     29      27.4572      27.4611      -8.3099      35.7714      -2.6728       0.8862       0.0000      -2.5642
     30      27.4572      27.4611      -8.3099      35.7714      -2.6728       0.8862       0.0000      -2.5642
     31      28.8737      28.8762      -7.0633      35.9397      -1.8826       0.9061       0.0000      -2.4677
     32      28.8737      28.8762      -7.0633      35.9397      -1.8826       0.9061       0.0000      -2.4677
     33      34.6701      34.6697      -7.4169      42.0866      -2.3071       0.9434       0.0000      -2.9765
     34      34.6701      34.6697      -7.4169      42.0866      -2.3071       0.9434       0.0000      -2.9765
     35      35.3725      35.3726      -7.0945      42.4671      -1.9485       0.9303       0.0000      -2.9038
     36      35.3725      35.3726      -7.0945      42.4671      -1.9485       0.9303       0.0000      -2.9038
     37      37.0832      37.0832      -8.2730      45.3561      -2.6982       0.9318       0.0000      -3.2903
     38      37.0832      37.0832      -8.2730      45.3561      -2.6982       0.9318       0.0000      -3.2903
     39      41.6564      41.6540      -6.5718      48.2256      -1.7430       0.9450       0.0000      -3.0347
     40      41.6564      41.6540      -6.5718      48.2256      -1.7430       0.9450       0.0000      -3.0347
     41      42.5733      42.5689      -6.3983      48.9670      -1.7435       0.9618       0.0000      -3.1998
     42      42.5733      42.5689      -6.3983      48.9670      -1.7435       0.9618       0.0000      -3.1998
     43      46.0451      46.0399      -7.0569      53.0966      -2.2203       0.9547       0.0000      -3.4933
     44      46.0451      46.0399      -7.0569      53.0966      -2.2203       0.9547       0.0000      -3.4933
     45      48.0951      48.0890      -6.9882      55.0770      -2.2482       0.9594       0.0000      -3.6232
     46      48.0951      48.0890      -6.9882      55.0770      -2.2482       0.9594       0.0000      -3.6232
     47      49.0485      49.0416      -6.5503      55.5916      -2.0223       0.9721       0.0000      -3.7080
     48      49.0485      49.0416      -6.5503      55.5916      -2.0223       0.9721       0.0000      -3.7080


--------------------------------------------------------------------------------------------------------


  QP_SHIFT:  cpu time      5.1620: real time      5.1624
    GWLOOP:  cpu time    656.5111: real time    656.5701
  LATTYP: Found a face centered cubic cell.
 ALAT       =     5.4688911228

  Lattice vectors:

 A1 = (   3.8670900000,   0.0000000000,   0.0000000000)
 A2 = (   1.9335450000,   3.3489981800,   0.0000000000)
 A3 = (   1.9335450000,   1.1163327300,   3.1574657600)


Analysis of symmetry for initial positions (statically):
=====================================================================
 Subroutine PRICEL returns:
 Original cell was already a primitive cell.


 Routine SETGRP: Setting up the symmetry group for a
 face centered cubic supercell.


 Subroutine GETGRP returns: Found 48 space group operations
 (whereof 24 operations were pure point group operations)
 out of a pool of 48 trial point group operations.


The static configuration has the point symmetry T_d .
 The point group associated with its full space group is O_h .


Analysis of symmetry for dynamics (positions and initial velocities):
=====================================================================
 Subroutine PRICEL returns:
 Original cell was already a primitive cell.


 Routine SETGRP: Setting up the symmetry group for a
 face centered cubic supercell.


 Subroutine GETGRP returns: Found 48 space group operations
 (whereof 24 operations were pure point group operations)
 out of a pool of 48 trial point group operations.


The dynamic configuration has the point symmetry T_d .
 The point group associated with its full space group is O_h .


Analysis of constrained symmetry for selective dynamics:
=====================================================================
 Subroutine PRICEL returns:
 Original cell was already a primitive cell.


 Routine SETGRP: Setting up the symmetry group for a
 face centered cubic supercell.


 Subroutine GETGRP returns: Found 48 space group operations
 (whereof 24 operations were pure point group operations)
 out of a pool of 48 trial point group operations.


The constrained configuration has the point symmetry T_d .
 The point group associated with its full space group is O_h .


 Subroutine INISYM returns: Found 48 space group operations
 (whereof 24 operations are pure point group operations),
 and found     1 'primitive' translations

 writing wavefunctions
    --------------------------------------------
   GWTOTAL:  cpu time   2790.9927: real time   2792.5433
    4ORBIT:  cpu time      0.0000: real time      0.0000

 total amount of memory used by VASP MPI-rank0    61072. kBytes
=======================================================================

   base      :      30000. kBytes
   nonl-proj :       4672. kBytes
   fftplans  :        221. kBytes
   grid      :        789. kBytes
   one-center:         80. kBytes
   HF        :        336. kBytes
   nonlr-proj:        700. kBytes
   wavefun   :       1013. kBytes
   fock_wrk  :      23261. kBytes
   2eintegral:          0. kBytes
   response  :          0. kBytes



 General timing and accounting informations for this job:
 ========================================================

                  Total CPU time used (sec):     2792.645
                            User time (sec):     2580.936
                          System time (sec):      211.709
                         Elapsed time (sec):     2795.111

                   Maximum memory used (kb):      794740.
                   Average memory used (kb):           0.

                          Minor page faults:    151826158
                          Major page faults:           23
                 Voluntary context switches:        45720
