<?xml version="1.0" encoding="ISO-8859-1"?>
<modeling>
 <generator>
  <i name="program" type="string">vasp </i>
  <i name="version" type="string">6.1.0  </i>
  <i name="subversion" type="string">28Jan20 (build Jul 15 2020 03:17:33) complex                          parallel </i>
  <i name="platform" type="string">ARA Cluster </i>
  <i name="date" type="string">2023 02 12 </i>
  <i name="time" type="string">14:47:11 </i>
 </generator>
 <incar>
  <i type="string" name="ALGO"> EVGW0</i>
  <i type="int" name="NELM">     4</i>
  <i name="EDIFF">      0.00000001</i>
  <i type="int" name="NSW">     0</i>
  <i type="int" name="NBANDS">    72</i>
  <i type="int" name="ISMEAR">     0</i>
  <i name="SIGMA">      0.05000000</i>
  <i type="string" name="ALGO"> EVGW0</i>
  <i type="int" name="NOMEGA">    50</i>
  <i type="logical" name="LSPECTRAL"> T  </i>
  <i type="int" name="NELM">     4</i>
  <i name="EDIFF">      0.00000001</i>
 </incar>
 <structure name="primitive_cell" >
  <crystal>
   <varray name="basis" >
    <v>       3.86709000       0.00000000       0.00000000 </v>
    <v>       1.93354500       3.34899818       0.00000000 </v>
    <v>       1.93354500       1.11633273       3.15746576 </v>
   </varray>
   <i name="volume">     40.89195186 </i>
   <varray name="rec_basis" >
    <v>       0.25859238      -0.14929838      -0.10556990 </v>
    <v>       0.00000000       0.29859676      -0.10556990 </v>
    <v>       0.00000000       0.00000000       0.31670969 </v>
   </varray>
  </crystal>
  <varray name="positions" >
   <v>       0.00000000       0.00000000       0.00000000 </v>
   <v>       0.25000000       0.25000000       0.25000000 </v>
  </varray>
 </structure>
 <varray name="primitive_index" >
  <v type="int" >        1 </v>
  <v type="int" >        2 </v>
 </varray>
 <kpoints>
  <generation param="Gamma">
   <v type="int" name="divisions">       6        6        6 </v>
   <v name="usershift">      0.00000000       0.00000000       0.00000000 </v>
   <v name="genvec1">      0.16666667      -0.00000000      -0.00000000 </v>
   <v name="genvec2">      0.00000000       0.16666667       0.00000000 </v>
   <v name="genvec3">      0.00000000       0.00000000       0.16666667 </v>
   <v name="shift">      0.00000000       0.00000000       0.00000000 </v>
  </generation>
  <varray name="kpointlist" >
   <v>       0.00000000       0.00000000       0.00000000 </v>
   <v>       0.16666667       0.00000000       0.00000000 </v>
   <v>       0.33333333       0.00000000       0.00000000 </v>
   <v>       0.50000000       0.00000000       0.00000000 </v>
   <v>       0.16666667       0.16666667       0.00000000 </v>
   <v>       0.33333333       0.16666667       0.00000000 </v>
   <v>       0.50000000       0.16666667       0.00000000 </v>
   <v>      -0.33333333       0.16666667       0.00000000 </v>
   <v>      -0.16666667       0.16666667       0.00000000 </v>
   <v>       0.33333333       0.33333333       0.00000000 </v>
   <v>       0.50000000       0.33333333       0.00000000 </v>
   <v>      -0.33333333       0.33333333       0.00000000 </v>
   <v>       0.50000000       0.50000000       0.00000000 </v>
   <v>       0.50000000       0.33333333       0.16666667 </v>
   <v>      -0.33333333       0.33333333       0.16666667 </v>
   <v>      -0.33333333       0.50000000       0.16666667 </v>
  </varray>
  <varray name="weights" >
   <v>       0.00462963 </v>
   <v>       0.03703704 </v>
   <v>       0.03703704 </v>
   <v>       0.01851852 </v>
   <v>       0.02777778 </v>
   <v>       0.11111111 </v>
   <v>       0.11111111 </v>
   <v>       0.11111111 </v>
   <v>       0.05555556 </v>
   <v>       0.02777778 </v>
   <v>       0.11111111 </v>
   <v>       0.05555556 </v>
   <v>       0.01388889 </v>
   <v>       0.11111111 </v>
   <v>       0.11111111 </v>
   <v>       0.05555556 </v>
  </varray>
 </kpoints>
 <parameters>
  <separator name="general" >
   <i type="string" name="SYSTEM">unknown system</i>
   <i type="logical" name="LCOMPAT"> F  </i>
  </separator>
  <separator name="electronic" >
   <i type="string" name="PREC">normal</i>
   <i name="ENMAX">    547.57800000</i>
   <i name="ENAUG">   1153.82700000</i>
   <i name="EDIFF">      0.00000001</i>
   <i type="int" name="IALGO">    38</i>
   <i type="int" name="IWAVPR">    10</i>
   <i type="int" name="NBANDS">    72</i>
   <i type="int" name="NBANDSLOW">    -1</i>
   <i type="int" name="NBANDSHIGH">    -1</i>
   <i name="NELECT">     24.00000000</i>
   <i type="int" name="TURBO">     0</i>
   <i type="int" name="IRESTART">     0</i>
   <i type="int" name="NREBOOT">     0</i>
   <i type="int" name="NMIN">     0</i>
   <i name="EREF">      0.00000000</i>
   <separator name="electronic smearing" >
    <i type="int" name="ISMEAR">     0</i>
    <i name="SIGMA">      0.05000000</i>
    <i name="KSPACING">      0.50000000</i>
    <i type="logical" name="KGAMMA"> T  </i>
    <i type="logical" name="KBLOWUP"> T  </i>
   </separator>
   <separator name="electronic projectors" >
    <i type="logical" name="LREAL"> F  </i>
    <v name="ROPT">      0.00000000</v>
    <i type="int" name="LMAXPAW">  -100</i>
    <i type="int" name="LMAXMIX">     2</i>
    <i type="logical" name="NLSPLINE"> F  </i>
   </separator>
   <separator name="electronic startup" >
    <i type="int" name="ISTART">     1</i>
    <i type="int" name="ICHARG">     0</i>
    <i type="int" name="INIWAV">     1</i>
   </separator>
   <separator name="electronic spin" >
    <i type="int" name="ISPIN">     1</i>
    <i type="logical" name="LNONCOLLINEAR"> F  </i>
    <v name="MAGMOM">      1.00000000      1.00000000</v>
    <i name="NUPDOWN">     -1.00000000</i>
    <i type="logical" name="LSORBIT"> F  </i>
    <v name="SAXIS">      0.00000000      0.00000000      1.00000000</v>
    <i type="logical" name="LSPIRAL"> F  </i>
    <v name="QSPIRAL">      0.00000000      0.00000000      0.00000000</v>
    <i type="logical" name="LZEROZ"> F  </i>
   </separator>
   <separator name="electronic exchange-correlation" >
    <i type="logical" name="LASPH"> F  </i>
    <i type="logical" name="LMETAGGA"> F  </i>
   </separator>
   <separator name="electronic convergence" >
    <i type="int" name="NELM">     4</i>
    <i type="int" name="NELMDL">     0</i>
    <i type="int" name="NELMIN">     2</i>
    <i name="ENINI">    547.57800000</i>
    <separator name="electronic convergence detail" >
     <i type="logical" name="LDIAG"> T  </i>
     <i type="logical" name="LSUBROT"> F  </i>
     <i name="WEIMIN">      0.00000000</i>
     <i name="EBREAK">      0.00000000</i>
     <i name="DEPER">      0.30000000</i>
     <i type="int" name="NRMM">     4</i>
     <i name="TIME">      0.40000000</i>
    </separator>
   </separator>
   <separator name="electronic mixer" >
    <i name="AMIX">      0.40000000</i>
    <i name="BMIX">      1.00000000</i>
    <i name="AMIN">      0.10000000</i>
    <i name="AMIX_MAG">      1.60000000</i>
    <i name="BMIX_MAG">      1.00000000</i>
    <separator name="electronic mixer details" >
     <i type="int" name="IMIX">     4</i>
     <i type="logical" name="MIXFIRST"> F  </i>
     <i type="int" name="MAXMIX">   -45</i>
     <i name="WC">    100.00000000</i>
     <i type="int" name="INIMIX">     1</i>
     <i type="int" name="MIXPRE">     1</i>
     <i type="int" name="MREMOVE">     5</i>
    </separator>
   </separator>
   <separator name="electronic dipolcorrection" >
    <i type="logical" name="LDIPOL"> F  </i>
    <i type="logical" name="LMONO"> F  </i>
    <i type="int" name="IDIPOL">     0</i>
    <i name="EPSILON">      1.00000000</i>
    <v name="DIPOL">   -100.00000000   -100.00000000   -100.00000000</v>
    <i name="EFIELD">      0.00000000</i>
   </separator>
  </separator>
  <separator name="grids" >
   <i type="int" name="NGX">    24</i>
   <i type="int" name="NGY">    24</i>
   <i type="int" name="NGZ">    24</i>
   <i type="int" name="NGXF">    48</i>
   <i type="int" name="NGYF">    48</i>
   <i type="int" name="NGZF">    48</i>
   <i type="logical" name="ADDGRID"> F  </i>
  </separator>
  <separator name="ionic" >
   <i type="int" name="NSW">     0</i>
   <i type="int" name="IBRION">    -1</i>
   <i type="int" name="MDALGO">     0</i>
   <i type="int" name="ISIF">     0</i>
   <i name="PSTRESS">      0.00000000</i>
   <i name="EDIFFG">      0.00000010</i>
   <i type="int" name="NFREE">     0</i>
   <i name="POTIM">      0.50000000</i>
   <i name="SMASS">     -3.00000000</i>
   <i name="SCALEE">      1.00000000</i>
  </separator>
  <separator name="ionic md" >
   <i name="TEBEG">      0.00010000</i>
   <i name="TEEND">      0.00010000</i>
   <i type="int" name="NBLOCK">     1</i>
   <i type="int" name="KBLOCK">     1</i>
   <i type="int" name="NPACO">   256</i>
   <i name="APACO">     16.00000000</i>
  </separator>
  <separator name="symmetry" >
   <i type="int" name="ISYM">     3</i>
   <i name="SYMPREC">      0.00001000</i>
  </separator>
  <separator name="dos" >
   <i type="int" name="LORBIT">     0</i>
   <v name="RWIGS">     -1.00000000</v>
   <i type="int" name="NEDOS">   301</i>
   <i name="EMIN">     10.00000000</i>
   <i name="EMAX">    -10.00000000</i>
   <i name="EFERMI">      0.00000000</i>
  </separator>
  <separator name="writing" >
   <i type="int" name="NWRITE">     2</i>
   <i type="logical" name="LWAVE"> T  </i>
   <i type="logical" name="LDOWNSAMPLE"> F  </i>
   <i type="logical" name="LCHARG"> T  </i>
   <i type="logical" name="LPARD"> F  </i>
   <i type="logical" name="LVTOT"> F  </i>
   <i type="logical" name="LVHAR"> F  </i>
   <i type="logical" name="LELF"> F  </i>
   <i type="logical" name="LOPTICS"> F  </i>
   <v name="STM">      0.00000000      0.00000000      0.00000000      0.00000000      0.00000000      0.00000000      0.00000000</v>
  </separator>
  <separator name="performance" >
   <i type="int" name="NPAR">    24</i>
   <i type="int" name="NSIM">     4</i>
   <i type="int" name="NBLK">    -1</i>
   <i type="logical" name="LPLANE"> T  </i>
   <i type="logical" name="LSCALAPACK"> T  </i>
   <i type="logical" name="LSCAAWARE"> T  </i>
   <i type="logical" name="LSCALU"> F  </i>
   <i type="logical" name="LASYNC"> F  </i>
   <i type="logical" name="LORBITALREAL"> F  </i>
  </separator>
  <separator name="miscellaneous" >
   <i type="int" name="IDIOT">     3</i>
   <i type="int" name="PHON_NSTRUCT">    -1</i>
   <i type="logical" name="LMUSIC"> F  </i>
   <v name="POMASS">     28.08500000</v>
   <v name="DARWINR">      0.00000000</v>
   <v name="DARWINV">      1.00000000</v>
   <i type="logical" name="LCORR"> T  </i>
  </separator>
  <i type="logical" name="GGA_COMPAT"> T  </i>
  <i type="logical" name="LBERRY"> F  </i>
  <i type="int" name="ICORELEVEL">     0</i>
  <i type="logical" name="LDAU"> F  </i>
  <i type="int" name="I_CONSTRAINED_M">     0</i>
  <separator name="electronic exchange-correlation" >
   <i type="string" name="GGA">--</i>
   <i type="int" name="VOSKOWN">     0</i>
   <i type="logical" name="LHFCALC"> T  </i>
   <i type="string" name="PRECFOCK">normal</i>
   <i type="logical" name="LSYMGRAD"> F  </i>
   <i type="logical" name="LHFONE"> F  </i>
   <i type="logical" name="LRHFCALC"> F  </i>
   <i type="logical" name="LTHOMAS"> F  </i>
   <i type="logical" name="LMODELHF"> F  </i>
   <i type="logical" name="LFOCKACE"> T  </i>
   <i name="ENCUT4O">     -1.00000000</i>
   <i type="int" name="EXXOEP">     0</i>
   <i type="int" name="FOURORBIT">     0</i>
   <i name="AEXX">      1.00000000</i>
   <i name="HFALPHA">     -1.00000000</i>
   <i name="MCALPHA">      0.00000000</i>
   <i name="ALDAX">      0.00000000</i>
   <i name="AGGAX">      0.00000000</i>
   <i name="ALDAC">      0.00000000</i>
   <i name="AGGAC">      0.00000000</i>
   <i type="int" name="NKREDX">     1</i>
   <i type="int" name="NKREDY">     1</i>
   <i type="int" name="NKREDZ">     1</i>
   <i type="logical" name="SHIFTRED"> F  </i>
   <i type="logical" name="ODDONLY"> F  </i>
   <i type="logical" name="EVENONLY"> F  </i>
   <i type="int" name="LMAXFOCK">     4</i>
   <i type="int" name="NMAXFOCKAE">     1</i>
   <i type="logical" name="LFOCKAEDFT"> F  </i>
   <i name="HFSCREEN">      0.00000000</i>
   <i name="HFSCREENC">      0.00000000</i>
   <i type="int" name="NBANDSGWLOW">     1</i>
  </separator>
  <separator name="vdW DFT" >
   <i type="logical" name="LUSE_VDW"> F  </i>
   <i name="Zab_VDW">     -0.84910000</i>
   <i name="PARAM1">      0.12340000</i>
   <i name="PARAM2">      1.00000000</i>
   <i name="PARAM3">      0.00000000</i>
  </separator>
  <separator name="model GW" >
   <i type="int" name="MODEL_GW">     0</i>
   <i name="MODEL_EPS0">     12.26758556</i>
   <i name="MODEL_ALPHA">      1.00000000</i>
  </separator>
  <separator name="linear response parameters" >
   <i type="logical" name="LEPSILON"> F  </i>
   <i type="logical" name="LRPA"> F  </i>
   <i type="logical" name="LNABLA"> F  </i>
   <i type="logical" name="LVEL"> F  </i>
   <i type="int" name="KINTER">     0</i>
   <i name="CSHIFT">      0.10000000</i>
   <i name="OMEGAMAX">     -1.00000000</i>
   <i name="DEG_THRESHOLD">      0.00200000</i>
   <i name="RTIME">     -0.10000000</i>
   <i name="WPLASMAI">      0.00000000</i>
   <v name="DFIELD">      0.00000000      0.00000000      0.00000000</v>
   <v name="WPLASMA">      0.00000000      0.00000000      0.00000000      0.00000000      0.00000000      0.00000000      0.00000000      0.00000000      0.00000000</v>
  </separator>
  <separator name="orbital magnetization" >
   <i type="logical" name="NUCIND"> F  </i>
   <v name="MAGPOS">      0.00000000      0.00000000      0.00000000</v>
   <i type="logical" name="LNICSALL"> T  </i>
   <i type="logical" name="ORBITALMAG"> F  </i>
   <i type="logical" name="LMAGBLOCH"> F  </i>
   <i type="logical" name="LCHIMAG"> F  </i>
   <i type="logical" name="LGAUGE"> T  </i>
   <i type="int" name="MAGATOM">     0</i>
   <v name="MAGDIPOL">      0.00000000      0.00000000      0.00000000</v>
   <v name="AVECCONST">      0.00000000      0.00000000      0.00000000</v>
  </separator>
  <separator name="response functions" >
   <i type="logical" name="LFINITE_TEMPERATURE"> F  </i>
   <i type="logical" name="LADDER"> F  </i>
   <i type="logical" name="LRPAFORCE"> F  </i>
   <i type="logical" name="LFXC"> F  </i>
   <i type="logical" name="LHARTREE"> T  </i>
   <i type="int" name="IBSE">     0</i>
   <v type="int" name="KPOINT">    -1     0     0     0</v>
   <i type="logical" name="LTCTC"> F  </i>
   <i type="logical" name="LTCTE"> F  </i>
   <i type="logical" name="LTETE"> F  </i>
   <i type="logical" name="LTRIPLET"> F  </i>
   <i type="logical" name="LFXCEPS"> F  </i>
   <i type="logical" name="LFXHEG"> F  </i>
   <i type="int" name="NATURALO">     2</i>
   <i type="logical" name="LHOLEGF"> F  </i>
   <i type="logical" name="L2ORDER"> F  </i>
   <i type="logical" name="LDMP1"> F  </i>
   <i type="logical" name="LMP2LT"> F  </i>
   <i type="logical" name="LSMP2LT"> F  </i>
   <i type="logical" name="LGWLF"> F  </i>
   <i name="ENCUTGW">    365.05200000</i>
   <i name="ENCUTGWSOFT">    365.05200000</i>
   <i name="ENCUTLF">     -1.00000000</i>
   <i type="logical" name="LESF_SPLINES"> F  </i>
   <i type="int" name="LMAXMP2">    -1</i>
   <i name="SCISSOR">      0.00000000</i>
   <i type="int" name="NOMEGA">    50</i>
   <i type="int" name="NOMEGAR">    50</i>
   <i type="int" name="NBANDSGW">    -1</i>
   <i type="int" name="NBANDSO">    -1</i>
   <i type="int" name="NBANDSV">    -1</i>
   <i type="int" name="NELM">     4</i>
   <i type="int" name="NELMHF">     1</i>
   <i type="int" name="DIM">     3</i>
   <i type="int" name="IESPILON">     4</i>
   <i type="int" name="ANTIRES">     0</i>
   <i name="OMEGAMAX">    -30.00000000</i>
   <i name="OMEGAMIN">    -30.00000000</i>
   <i name="OMEGATL">   -200.00000000</i>
   <i type="int" name="OMEGAGRID">     0</i>
   <i name="CSHIFT">     -0.10000000</i>
   <i type="logical" name="LSELFENERGY"> F  </i>
   <i type="logical" name="LSPECTRAL"> T  </i>
   <i type="logical" name="LSPECTRALGW"> F  </i>
   <i type="logical" name="LSINGLES"> F  </i>
   <i type="logical" name="LFERMIGW"> F  </i>
   <i type="logical" name="ODDONLYGW"> F  </i>
   <i type="logical" name="EVENONLYGW"> F  </i>
   <i type="int" name="NKREDLFX">     1</i>
   <i type="int" name="NKREDLFY">     1</i>
   <i type="int" name="NKREDLFZ">     1</i>
   <i type="int" name="MAXMEM">  2800</i>
   <i type="int" name="TELESCOPE">     0</i>
   <i type="int" name="NTAUPAR">    -1</i>
   <i type="int" name="NOMEGAPAR">    -1</i>
   <i name="LAMBDA">      1.00000000</i>
  </separator>
  <separator name="External order field" >
   <i name="OFIELD_KAPPA">      0.00000000</i>
   <v name="OFIELD_K">      0.00000000      0.00000000      0.00000000</v>
   <i name="OFIELD_Q6_NEAR">      0.00000000</i>
   <i name="OFIELD_Q6_FAR">      0.00000000</i>
   <i name="OFIELD_A">      0.00000000</i>
  </separator>
 </parameters>
 <atominfo>
  <atoms>       2 </atoms>
  <types>       1 </types>
  <array name="atoms" >
   <dimension dim="1">ion</dimension>
   <field type="string">element</field>
   <field type="int">atomtype</field>
   <set>
    <rc><c>Si</c><c>   1</c></rc>
    <rc><c>Si</c><c>   1</c></rc>
   </set>
  </array>
  <array name="atomtypes" >
   <dimension dim="1">type</dimension>
   <field type="int">atomspertype</field>
   <field type="string">element</field>
   <field>mass</field>
   <field>valence</field>
   <field type="string">pseudopotential</field>
   <set>
    <rc><c>   2</c><c>Si</c><c>     28.08500000</c><c>     12.00000000</c><c>  PAW_PBE Si_sv_GW 29Sep2009            </c></rc>
   </set>
  </array>
 </atominfo>
 <structure name="initialpos" >
  <crystal>
   <varray name="basis" >
    <v>       3.86709000       0.00000000       0.00000000 </v>
    <v>       1.93354500       3.34899818       0.00000000 </v>
    <v>       1.93354500       1.11633273       3.15746576 </v>
   </varray>
   <i name="volume">     40.89195186 </i>
   <varray name="rec_basis" >
    <v>       0.25859238      -0.14929838      -0.10556990 </v>
    <v>       0.00000000       0.29859676      -0.10556990 </v>
    <v>       0.00000000       0.00000000       0.31670969 </v>
   </varray>
  </crystal>
  <varray name="positions" >
   <v>       0.00000000       0.00000000       0.00000000 </v>
   <v>       0.25000000       0.25000000       0.25000000 </v>
  </varray>
  <varray name="selective"  type="logical" >
   <v type="logical" >  T  T  T </v>
   <v type="logical" >  T  T  T </v>
  </varray>
  <nose>
   <v>      -3.00000000       0.00000000       0.00010000       0.00010000 </v>
  </nose>
 </structure>
 <calculation>
  <kpoints>
   <generation param="Gamma">
    <v type="int" name="divisions">       6        6        6 </v>
    <v name="usershift">      0.00000000       0.00000000       0.00000000 </v>
    <v name="genvec1">      0.16666667      -0.00000000      -0.00000000 </v>
    <v name="genvec2">      0.00000000       0.16666667       0.00000000 </v>
    <v name="genvec3">      0.00000000       0.00000000       0.16666667 </v>
    <v name="shift">      0.00000000       0.00000000       0.00000000 </v>
   </generation>
   <varray name="kpointlist" >
    <v>       0.00000000       0.00000000       0.00000000 </v>
    <v>       0.16666667       0.00000000       0.00000000 </v>
    <v>      -0.16666667       0.00000000       0.00000000 </v>
    <v>       0.00000000       0.16666667       0.00000000 </v>
    <v>       0.00000000      -0.16666667       0.00000000 </v>
    <v>       0.00000000       0.00000000       0.16666667 </v>
    <v>       0.00000000       0.00000000      -0.16666667 </v>
    <v>       0.16666667       0.16666667       0.16666667 </v>
    <v>      -0.16666667      -0.16666667      -0.16666667 </v>
    <v>       0.33333333       0.00000000       0.00000000 </v>
    <v>      -0.33333333       0.00000000       0.00000000 </v>
    <v>       0.00000000       0.33333333       0.00000000 </v>
    <v>       0.00000000      -0.33333333       0.00000000 </v>
    <v>       0.00000000       0.00000000       0.33333333 </v>
    <v>       0.00000000       0.00000000      -0.33333333 </v>
    <v>       0.33333333       0.33333333       0.33333333 </v>
    <v>      -0.33333333      -0.33333333      -0.33333333 </v>
    <v>       0.50000000       0.00000000       0.00000000 </v>
    <v>       0.00000000       0.50000000       0.00000000 </v>
    <v>       0.00000000       0.00000000       0.50000000 </v>
    <v>       0.50000000       0.50000000       0.50000000 </v>
    <v>       0.16666667       0.16666667       0.00000000 </v>
    <v>      -0.16666667      -0.16666667       0.00000000 </v>
    <v>       0.00000000       0.16666667       0.16666667 </v>
    <v>       0.00000000      -0.16666667      -0.16666667 </v>
    <v>       0.16666667       0.00000000       0.16666667 </v>
    <v>      -0.16666667       0.00000000      -0.16666667 </v>
    <v>       0.33333333       0.16666667       0.00000000 </v>
    <v>      -0.33333333      -0.16666667       0.00000000 </v>
    <v>       0.00000000       0.33333333       0.16666667 </v>
    <v>       0.00000000      -0.33333333      -0.16666667 </v>
    <v>       0.16666667       0.00000000       0.33333333 </v>
    <v>      -0.16666667       0.00000000      -0.33333333 </v>
    <v>       0.16666667       0.16666667      -0.16666667 </v>
    <v>      -0.16666667      -0.16666667       0.16666667 </v>
    <v>       0.33333333       0.16666667       0.33333333 </v>
    <v>      -0.33333333      -0.16666667      -0.33333333 </v>
    <v>       0.16666667       0.33333333       0.00000000 </v>
    <v>      -0.16666667      -0.33333333       0.00000000 </v>
    <v>       0.16666667      -0.16666667      -0.16666667 </v>
    <v>      -0.16666667       0.16666667       0.16666667 </v>
    <v>       0.33333333       0.33333333       0.16666667 </v>
    <v>      -0.33333333      -0.33333333      -0.16666667 </v>
    <v>       0.00000000       0.16666667       0.33333333 </v>
    <v>       0.00000000      -0.16666667      -0.33333333 </v>
    <v>      -0.16666667       0.16666667      -0.16666667 </v>
    <v>       0.16666667      -0.16666667       0.16666667 </v>
    <v>       0.16666667       0.33333333       0.33333333 </v>
    <v>      -0.16666667      -0.33333333      -0.33333333 </v>
    <v>       0.33333333       0.00000000       0.16666667 </v>
    <v>      -0.33333333       0.00000000      -0.16666667 </v>
    <v>       0.50000000       0.16666667       0.00000000 </v>
    <v>       0.50000000      -0.16666667       0.00000000 </v>
    <v>       0.00000000       0.50000000       0.16666667 </v>
    <v>       0.00000000       0.50000000      -0.16666667 </v>
    <v>       0.16666667       0.00000000       0.50000000 </v>
    <v>      -0.16666667       0.00000000       0.50000000 </v>
    <v>       0.16666667       0.16666667      -0.33333333 </v>
    <v>      -0.16666667      -0.16666667       0.33333333 </v>
    <v>       0.50000000       0.33333333       0.50000000 </v>
    <v>       0.50000000      -0.33333333       0.50000000 </v>
    <v>       0.16666667       0.50000000       0.00000000 </v>
    <v>      -0.16666667       0.50000000       0.00000000 </v>
    <v>       0.33333333      -0.16666667      -0.16666667 </v>
    <v>      -0.33333333       0.16666667       0.16666667 </v>
    <v>       0.50000000       0.50000000       0.33333333 </v>
    <v>       0.50000000       0.50000000      -0.33333333 </v>
    <v>       0.00000000       0.16666667       0.50000000 </v>
    <v>       0.00000000      -0.16666667       0.50000000 </v>
    <v>      -0.16666667       0.33333333      -0.16666667 </v>
    <v>       0.16666667      -0.33333333       0.16666667 </v>
    <v>       0.33333333       0.50000000       0.50000000 </v>
    <v>      -0.33333333       0.50000000       0.50000000 </v>
    <v>       0.50000000       0.00000000       0.16666667 </v>
    <v>       0.50000000       0.00000000      -0.16666667 </v>
    <v>      -0.33333333       0.16666667       0.00000000 </v>
    <v>       0.33333333      -0.16666667       0.00000000 </v>
    <v>       0.00000000      -0.33333333       0.16666667 </v>
    <v>       0.00000000       0.33333333      -0.16666667 </v>
    <v>       0.16666667       0.00000000      -0.33333333 </v>
    <v>      -0.16666667       0.00000000       0.33333333 </v>
    <v>       0.16666667       0.16666667       0.50000000 </v>
    <v>      -0.16666667      -0.16666667       0.50000000 </v>
    <v>      -0.33333333       0.50000000      -0.33333333 </v>
    <v>       0.33333333       0.50000000       0.33333333 </v>
    <v>       0.16666667      -0.33333333       0.00000000 </v>
    <v>      -0.16666667       0.33333333       0.00000000 </v>
    <v>       0.50000000      -0.16666667      -0.16666667 </v>
    <v>       0.50000000       0.16666667       0.16666667 </v>
    <v>      -0.33333333      -0.33333333       0.50000000 </v>
    <v>       0.33333333       0.33333333       0.50000000 </v>
    <v>       0.00000000       0.16666667      -0.33333333 </v>
    <v>       0.00000000      -0.16666667       0.33333333 </v>
    <v>      -0.16666667       0.50000000      -0.16666667 </v>
    <v>       0.16666667       0.50000000       0.16666667 </v>
    <v>       0.50000000      -0.33333333      -0.33333333 </v>
    <v>       0.50000000       0.33333333       0.33333333 </v>
    <v>      -0.33333333       0.00000000       0.16666667 </v>
    <v>       0.33333333       0.00000000      -0.16666667 </v>
    <v>      -0.16666667       0.16666667       0.00000000 </v>
    <v>       0.16666667      -0.16666667       0.00000000 </v>
    <v>       0.00000000      -0.16666667       0.16666667 </v>
    <v>       0.00000000       0.16666667      -0.16666667 </v>
    <v>       0.16666667       0.00000000      -0.16666667 </v>
    <v>      -0.16666667       0.00000000       0.16666667 </v>
    <v>       0.16666667       0.16666667       0.33333333 </v>
    <v>      -0.16666667      -0.16666667      -0.33333333 </v>
    <v>      -0.16666667      -0.33333333      -0.16666667 </v>
    <v>       0.16666667       0.33333333       0.16666667 </v>
    <v>      -0.33333333      -0.16666667      -0.16666667 </v>
    <v>       0.33333333       0.16666667       0.16666667 </v>
    <v>       0.33333333       0.33333333       0.00000000 </v>
    <v>      -0.33333333      -0.33333333       0.00000000 </v>
    <v>       0.00000000       0.33333333       0.33333333 </v>
    <v>       0.00000000      -0.33333333      -0.33333333 </v>
    <v>       0.33333333       0.00000000       0.33333333 </v>
    <v>      -0.33333333       0.00000000      -0.33333333 </v>
    <v>       0.50000000       0.33333333       0.00000000 </v>
    <v>       0.50000000      -0.33333333       0.00000000 </v>
    <v>       0.00000000       0.50000000       0.33333333 </v>
    <v>       0.00000000       0.50000000      -0.33333333 </v>
    <v>       0.33333333       0.00000000       0.50000000 </v>
    <v>      -0.33333333       0.00000000       0.50000000 </v>
    <v>       0.33333333       0.33333333      -0.16666667 </v>
    <v>      -0.33333333      -0.33333333       0.16666667 </v>
    <v>       0.50000000       0.16666667       0.50000000 </v>
    <v>       0.50000000      -0.16666667       0.50000000 </v>
    <v>       0.33333333       0.50000000       0.00000000 </v>
    <v>      -0.33333333       0.50000000       0.00000000 </v>
    <v>       0.16666667      -0.33333333      -0.33333333 </v>
    <v>      -0.16666667       0.33333333       0.33333333 </v>
    <v>       0.50000000       0.50000000       0.16666667 </v>
    <v>       0.50000000       0.50000000      -0.16666667 </v>
    <v>       0.00000000       0.33333333       0.50000000 </v>
    <v>       0.00000000      -0.33333333       0.50000000 </v>
    <v>      -0.33333333       0.16666667      -0.33333333 </v>
    <v>       0.33333333      -0.16666667       0.33333333 </v>
    <v>       0.16666667       0.50000000       0.50000000 </v>
    <v>      -0.16666667       0.50000000       0.50000000 </v>
    <v>       0.50000000       0.00000000       0.33333333 </v>
    <v>       0.50000000       0.00000000      -0.33333333 </v>
    <v>      -0.33333333       0.33333333       0.00000000 </v>
    <v>       0.33333333      -0.33333333       0.00000000 </v>
    <v>       0.00000000      -0.33333333       0.33333333 </v>
    <v>       0.00000000       0.33333333      -0.33333333 </v>
    <v>       0.33333333       0.00000000      -0.33333333 </v>
    <v>      -0.33333333       0.00000000       0.33333333 </v>
    <v>       0.33333333       0.33333333      -0.33333333 </v>
    <v>      -0.33333333      -0.33333333       0.33333333 </v>
    <v>      -0.33333333       0.33333333      -0.33333333 </v>
    <v>       0.33333333      -0.33333333       0.33333333 </v>
    <v>       0.33333333      -0.33333333      -0.33333333 </v>
    <v>      -0.33333333       0.33333333       0.33333333 </v>
    <v>       0.50000000       0.50000000       0.00000000 </v>
    <v>       0.00000000       0.50000000       0.50000000 </v>
    <v>       0.50000000       0.00000000       0.50000000 </v>
    <v>       0.50000000       0.33333333       0.16666667 </v>
    <v>       0.50000000      -0.33333333      -0.16666667 </v>
    <v>       0.16666667       0.50000000       0.33333333 </v>
    <v>      -0.16666667       0.50000000      -0.33333333 </v>
    <v>       0.33333333       0.16666667       0.50000000 </v>
    <v>      -0.33333333      -0.16666667       0.50000000 </v>
    <v>       0.33333333       0.16666667      -0.16666667 </v>
    <v>      -0.33333333      -0.16666667       0.16666667 </v>
    <v>       0.50000000       0.16666667       0.33333333 </v>
    <v>       0.50000000      -0.16666667      -0.33333333 </v>
    <v>       0.16666667      -0.33333333      -0.16666667 </v>
    <v>      -0.16666667       0.33333333       0.16666667 </v>
    <v>       0.16666667       0.33333333      -0.16666667 </v>
    <v>      -0.16666667      -0.33333333       0.16666667 </v>
    <v>       0.16666667      -0.16666667      -0.33333333 </v>
    <v>      -0.16666667       0.16666667       0.33333333 </v>
    <v>       0.33333333       0.50000000       0.16666667 </v>
    <v>      -0.33333333       0.50000000      -0.16666667 </v>
    <v>      -0.16666667       0.16666667      -0.33333333 </v>
    <v>       0.16666667      -0.16666667       0.33333333 </v>
    <v>      -0.33333333       0.16666667      -0.16666667 </v>
    <v>       0.33333333      -0.16666667       0.16666667 </v>
    <v>       0.16666667       0.33333333       0.50000000 </v>
    <v>      -0.16666667      -0.33333333       0.50000000 </v>
    <v>      -0.33333333       0.33333333       0.16666667 </v>
    <v>       0.33333333      -0.33333333      -0.16666667 </v>
    <v>       0.16666667      -0.33333333       0.33333333 </v>
    <v>      -0.16666667       0.33333333      -0.33333333 </v>
    <v>       0.33333333       0.16666667      -0.33333333 </v>
    <v>      -0.33333333      -0.16666667       0.33333333 </v>
    <v>      -0.33333333       0.33333333       0.50000000 </v>
    <v>       0.33333333      -0.33333333       0.50000000 </v>
    <v>       0.16666667       0.50000000      -0.16666667 </v>
    <v>      -0.16666667       0.50000000       0.16666667 </v>
    <v>       0.33333333      -0.16666667      -0.33333333 </v>
    <v>      -0.33333333       0.16666667       0.33333333 </v>
    <v>       0.50000000      -0.33333333       0.33333333 </v>
    <v>       0.50000000       0.33333333      -0.33333333 </v>
    <v>      -0.16666667       0.16666667       0.50000000 </v>
    <v>       0.16666667      -0.16666667       0.50000000 </v>
    <v>      -0.33333333       0.33333333      -0.16666667 </v>
    <v>       0.33333333      -0.33333333       0.16666667 </v>
    <v>       0.33333333       0.50000000      -0.33333333 </v>
    <v>      -0.33333333       0.50000000       0.33333333 </v>
    <v>       0.50000000      -0.16666667       0.16666667 </v>
    <v>       0.50000000       0.16666667      -0.16666667 </v>
    <v>      -0.16666667      -0.33333333       0.33333333 </v>
    <v>       0.16666667       0.33333333      -0.33333333 </v>
    <v>      -0.33333333       0.50000000       0.16666667 </v>
    <v>       0.33333333       0.50000000      -0.16666667 </v>
    <v>       0.16666667      -0.33333333       0.50000000 </v>
    <v>      -0.16666667       0.33333333       0.50000000 </v>
    <v>       0.50000000       0.16666667      -0.33333333 </v>
    <v>       0.50000000      -0.16666667       0.33333333 </v>
    <v>       0.50000000       0.33333333      -0.16666667 </v>
    <v>       0.50000000      -0.33333333       0.16666667 </v>
    <v>      -0.33333333       0.16666667       0.50000000 </v>
    <v>       0.33333333      -0.16666667       0.50000000 </v>
    <v>       0.16666667       0.50000000      -0.33333333 </v>
    <v>      -0.16666667       0.50000000       0.33333333 </v>
   </varray>
   <varray name="weights" >
    <v>       0.00462963 </v>
    <v>       0.00462963 </v>
    <v>       0.00462963 </v>
    <v>       0.00462963 </v>
    <v>       0.00462963 </v>
    <v>       0.00462963 </v>
    <v>       0.00462963 </v>
    <v>       0.00462963 </v>
    <v>       0.00462963 </v>
    <v>       0.00462963 </v>
    <v>       0.00462963 </v>
    <v>       0.00462963 </v>
    <v>       0.00462963 </v>
    <v>       0.00462963 </v>
    <v>       0.00462963 </v>
    <v>       0.00462963 </v>
    <v>       0.00462963 </v>
    <v>       0.00462963 </v>
    <v>       0.00462963 </v>
    <v>       0.00462963 </v>
    <v>       0.00462963 </v>
    <v>       0.00462963 </v>
    <v>       0.00462963 </v>
    <v>       0.00462963 </v>
    <v>       0.00462963 </v>
    <v>       0.00462963 </v>
    <v>       0.00462963 </v>
    <v>       0.00462963 </v>
    <v>       0.00462963 </v>
    <v>       0.00462963 </v>
    <v>       0.00462963 </v>
    <v>       0.00462963 </v>
    <v>       0.00462963 </v>
    <v>       0.00462963 </v>
    <v>       0.00462963 </v>
    <v>       0.00462963 </v>
    <v>       0.00462963 </v>
    <v>       0.00462963 </v>
    <v>       0.00462963 </v>
    <v>       0.00462963 </v>
    <v>       0.00462963 </v>
    <v>       0.00462963 </v>
    <v>       0.00462963 </v>
    <v>       0.00462963 </v>
    <v>       0.00462963 </v>
    <v>       0.00462963 </v>
    <v>       0.00462963 </v>
    <v>       0.00462963 </v>
    <v>       0.00462963 </v>
    <v>       0.00462963 </v>
    <v>       0.00462963 </v>
    <v>       0.00462963 </v>
    <v>       0.00462963 </v>
    <v>       0.00462963 </v>
    <v>       0.00462963 </v>
    <v>       0.00462963 </v>
    <v>       0.00462963 </v>
    <v>       0.00462963 </v>
    <v>       0.00462963 </v>
    <v>       0.00462963 </v>
    <v>       0.00462963 </v>
    <v>       0.00462963 </v>
    <v>       0.00462963 </v>
    <v>       0.00462963 </v>
    <v>       0.00462963 </v>
    <v>       0.00462963 </v>
    <v>       0.00462963 </v>
    <v>       0.00462963 </v>
    <v>       0.00462963 </v>
    <v>       0.00462963 </v>
    <v>       0.00462963 </v>
    <v>       0.00462963 </v>
    <v>       0.00462963 </v>
    <v>       0.00462963 </v>
    <v>       0.00462963 </v>
    <v>       0.00462963 </v>
    <v>       0.00462963 </v>
    <v>       0.00462963 </v>
    <v>       0.00462963 </v>
    <v>       0.00462963 </v>
    <v>       0.00462963 </v>
    <v>       0.00462963 </v>
    <v>       0.00462963 </v>
    <v>       0.00462963 </v>
    <v>       0.00462963 </v>
    <v>       0.00462963 </v>
    <v>       0.00462963 </v>
    <v>       0.00462963 </v>
    <v>       0.00462963 </v>
    <v>       0.00462963 </v>
    <v>       0.00462963 </v>
    <v>       0.00462963 </v>
    <v>       0.00462963 </v>
    <v>       0.00462963 </v>
    <v>       0.00462963 </v>
    <v>       0.00462963 </v>
    <v>       0.00462963 </v>
    <v>       0.00462963 </v>
    <v>       0.00462963 </v>
    <v>       0.00462963 </v>
    <v>       0.00462963 </v>
    <v>       0.00462963 </v>
    <v>       0.00462963 </v>
    <v>       0.00462963 </v>
    <v>       0.00462963 </v>
    <v>       0.00462963 </v>
    <v>       0.00462963 </v>
    <v>       0.00462963 </v>
    <v>       0.00462963 </v>
    <v>       0.00462963 </v>
    <v>       0.00462963 </v>
    <v>       0.00462963 </v>
    <v>       0.00462963 </v>
    <v>       0.00462963 </v>
    <v>       0.00462963 </v>
    <v>       0.00462963 </v>
    <v>       0.00462963 </v>
    <v>       0.00462963 </v>
    <v>       0.00462963 </v>
    <v>       0.00462963 </v>
    <v>       0.00462963 </v>
    <v>       0.00462963 </v>
    <v>       0.00462963 </v>
    <v>       0.00462963 </v>
    <v>       0.00462963 </v>
    <v>       0.00462963 </v>
    <v>       0.00462963 </v>
    <v>       0.00462963 </v>
    <v>       0.00462963 </v>
    <v>       0.00462963 </v>
    <v>       0.00462963 </v>
    <v>       0.00462963 </v>
    <v>       0.00462963 </v>
    <v>       0.00462963 </v>
    <v>       0.00462963 </v>
    <v>       0.00462963 </v>
    <v>       0.00462963 </v>
    <v>       0.00462963 </v>
    <v>       0.00462963 </v>
    <v>       0.00462963 </v>
    <v>       0.00462963 </v>
    <v>       0.00462963 </v>
    <v>       0.00462963 </v>
    <v>       0.00462963 </v>
    <v>       0.00462963 </v>
    <v>       0.00462963 </v>
    <v>       0.00462963 </v>
    <v>       0.00462963 </v>
    <v>       0.00462963 </v>
    <v>       0.00462963 </v>
    <v>       0.00462963 </v>
    <v>       0.00462963 </v>
    <v>       0.00462963 </v>
    <v>       0.00462963 </v>
    <v>       0.00462963 </v>
    <v>       0.00462963 </v>
    <v>       0.00462963 </v>
    <v>       0.00462963 </v>
    <v>       0.00462963 </v>
    <v>       0.00462963 </v>
    <v>       0.00462963 </v>
    <v>       0.00462963 </v>
    <v>       0.00462963 </v>
    <v>       0.00462963 </v>
    <v>       0.00462963 </v>
    <v>       0.00462963 </v>
    <v>       0.00462963 </v>
    <v>       0.00462963 </v>
    <v>       0.00462963 </v>
    <v>       0.00462963 </v>
    <v>       0.00462963 </v>
    <v>       0.00462963 </v>
    <v>       0.00462963 </v>
    <v>       0.00462963 </v>
    <v>       0.00462963 </v>
    <v>       0.00462963 </v>
    <v>       0.00462963 </v>
    <v>       0.00462963 </v>
    <v>       0.00462963 </v>
    <v>       0.00462963 </v>
    <v>       0.00462963 </v>
    <v>       0.00462963 </v>
    <v>       0.00462963 </v>
    <v>       0.00462963 </v>
    <v>       0.00462963 </v>
    <v>       0.00462963 </v>
    <v>       0.00462963 </v>
    <v>       0.00462963 </v>
    <v>       0.00462963 </v>
    <v>       0.00462963 </v>
    <v>       0.00462963 </v>
    <v>       0.00462963 </v>
    <v>       0.00462963 </v>
    <v>       0.00462963 </v>
    <v>       0.00462963 </v>
    <v>       0.00462963 </v>
    <v>       0.00462963 </v>
    <v>       0.00462963 </v>
    <v>       0.00462963 </v>
    <v>       0.00462963 </v>
    <v>       0.00462963 </v>
    <v>       0.00462963 </v>
    <v>       0.00462963 </v>
    <v>       0.00462963 </v>
    <v>       0.00462963 </v>
    <v>       0.00462963 </v>
    <v>       0.00462963 </v>
    <v>       0.00462963 </v>
    <v>       0.00462963 </v>
    <v>       0.00462963 </v>
    <v>       0.00462963 </v>
    <v>       0.00462963 </v>
    <v>       0.00462963 </v>
    <v>       0.00462963 </v>
    <v>       0.00462963 </v>
    <v>       0.00462963 </v>
   </varray>
  </kpoints>
  <dielectricfunction comment="HEAD OF MICROSCOPIC DIELECTRIC TENSOR (INDEPENDENT PARTICLE)">
   <imag>
    <array>
     <dimension dim="1">gridpoints</dimension>
     <field>energy</field>
     <field>xx</field>
     <field>yy</field>
     <field>zz</field>
     <field>xy</field>
     <field>yz</field>
     <field>zx</field>
     <set>
      <r>     0.0000     0.0000    -0.0000     0.0000     0.0000     0.0000     0.0000 </r>
      <r>     1.8002     4.6890     4.6890     4.6890     0.0000     0.0000     0.0000 </r>
      <r>     3.5943     7.5449     7.5449     7.5449     0.0000     0.0000     0.0000 </r>
      <r>     5.3766     6.5789     6.5788     6.5788     0.0000     0.0000     0.0000 </r>
      <r>     7.1421     4.3746     4.3746     4.3745     0.0000     0.0000     0.0000 </r>
      <r>     8.8863     2.7044     2.7044     2.7044     0.0000     0.0000     0.0000 </r>
      <r>    10.6060     1.6810     1.6810     1.6810     0.0000     0.0000     0.0000 </r>
      <r>    12.2990     1.0991     1.0991     1.0991     0.0000     0.0000     0.0000 </r>
      <r>    13.9641     0.7534     0.7534     0.7534     0.0000     0.0000     0.0000 </r>
      <r>    15.6012     0.5324     0.5324     0.5324     0.0000     0.0000     0.0000 </r>
      <r>    17.2108     0.3870     0.3870     0.3870     0.0000     0.0000     0.0000 </r>
      <r>    18.7946     0.2910     0.2910     0.2910     0.0000     0.0000     0.0000 </r>
      <r>    20.3549     0.2247     0.2247     0.2247     0.0000     0.0000     0.0000 </r>
      <r>    21.8944     0.1772     0.1772     0.1772     0.0000     0.0000     0.0000 </r>
      <r>    23.4164     0.1432     0.1432     0.1432     0.0000     0.0000     0.0000 </r>
      <r>    24.9246     0.1187     0.1187     0.1187     0.0000     0.0000     0.0000 </r>
      <r>    26.4231     0.1003     0.1003     0.1003     0.0000     0.0000     0.0000 </r>
      <r>    27.9165     0.0863     0.0863     0.0863     0.0000     0.0000     0.0000 </r>
      <r>    29.4092     0.0755     0.0755     0.0755     0.0000     0.0000     0.0000 </r>
      <r>    30.9066     0.0668     0.0668     0.0668     0.0000     0.0000     0.0000 </r>
      <r>    32.4139     0.0598     0.0598     0.0598     0.0000     0.0000     0.0000 </r>
      <r>    33.9370     0.0542     0.0542     0.0542     0.0000     0.0000     0.0000 </r>
      <r>    35.4821     0.0492     0.0492     0.0492     0.0000     0.0000     0.0000 </r>
      <r>    37.0561     0.0450     0.0450     0.0450     0.0000     0.0000     0.0000 </r>
      <r>    38.6664     0.0412     0.0412     0.0412     0.0000     0.0000     0.0000 </r>
      <r>    40.3212     0.0372     0.0372     0.0372     0.0000     0.0000     0.0000 </r>
      <r>    42.0298     0.0332     0.0332     0.0332     0.0000     0.0000     0.0000 </r>
      <r>    43.8023     0.0297     0.0297     0.0297     0.0000     0.0000     0.0000 </r>
      <r>    45.6504     0.0269     0.0269     0.0269     0.0000     0.0000     0.0000 </r>
      <r>    47.5877     0.0245     0.0245     0.0245     0.0000     0.0000     0.0000 </r>
      <r>    49.6292     0.0217     0.0217     0.0217     0.0000     0.0000     0.0000 </r>
      <r>    51.7935     0.0191     0.0191     0.0191     0.0000     0.0000     0.0000 </r>
      <r>    54.1012     0.0172     0.0172     0.0172     0.0000     0.0000     0.0000 </r>
      <r>    56.5780     0.0158     0.0158     0.0158     0.0000     0.0000     0.0000 </r>
      <r>    59.2540     0.0146     0.0146     0.0146     0.0000     0.0000     0.0000 </r>
      <r>    62.1659     0.0131     0.0131     0.0131     0.0000     0.0000     0.0000 </r>
      <r>    65.3588     0.0110     0.0110     0.0110     0.0000     0.0000     0.0000 </r>
      <r>    68.8884     0.0084     0.0084     0.0084     0.0000     0.0000     0.0000 </r>
      <r>    72.8250     0.0064     0.0064     0.0064     0.0000     0.0000     0.0000 </r>
      <r>    77.2579     0.0054     0.0054     0.0054     0.0000     0.0000     0.0000 </r>
      <r>    82.3029     0.0057     0.0057     0.0057     0.0000     0.0000     0.0000 </r>
      <r>    88.1118     0.0095     0.0095     0.0095     0.0000     0.0000     0.0000 </r>
      <r>    94.8885     0.0193     0.0193     0.0193     0.0000     0.0000     0.0000 </r>
      <r>   102.9133     0.0295     0.0295     0.0295     0.0000     0.0000     0.0000 </r>
      <r>   112.5806     0.0390     0.0390     0.0390     0.0000     0.0000     0.0000 </r>
      <r>   124.4649     0.0368     0.0368     0.0368     0.0000     0.0000     0.0000 </r>
      <r>   139.4354     0.0300     0.0300     0.0300     0.0000     0.0000     0.0000 </r>
      <r>   158.8716     0.0133     0.0133     0.0133     0.0000     0.0000     0.0000 </r>
      <r>   185.1024     0.0031     0.0030     0.0030     0.0000     0.0000     0.0000 </r>
      <r>   222.3914     0.0006     0.0006     0.0006     0.0000     0.0000     0.0000 </r>
     </set>
    </array>
   </imag>
   <real>
    <array>
     <dimension dim="1">gridpoints</dimension>
     <field>energy</field>
     <field>xx</field>
     <field>yy</field>
     <field>zz</field>
     <field>xy</field>
     <field>yz</field>
     <field>zx</field>
     <set>
      <r>     0.0000    10.7777    10.7777    10.7776     0.0000     0.0000     0.0000 </r>
      <r>     1.8002     9.4145     9.4145     9.4145     0.0000     0.0000     0.0000 </r>
      <r>     3.5943     5.1924     5.1923     5.1923     0.0000     0.0000     0.0000 </r>
      <r>     5.3766     1.0202     1.0202     1.0202    -0.0000     0.0000    -0.0000 </r>
      <r>     7.1421    -0.6511    -0.6511    -0.6511    -0.0000    -0.0000    -0.0000 </r>
      <r>     8.8863    -0.9358    -0.9358    -0.9357    -0.0000    -0.0000    -0.0000 </r>
      <r>    10.6060    -0.7274    -0.7274    -0.7274    -0.0000    -0.0000    -0.0000 </r>
      <r>    12.2990    -0.4430    -0.4430    -0.4430    -0.0000    -0.0000    -0.0000 </r>
      <r>    13.9641    -0.1986    -0.1986    -0.1986    -0.0000    -0.0000    -0.0000 </r>
      <r>    15.6012    -0.0014    -0.0014    -0.0014    -0.0000    -0.0000    -0.0000 </r>
      <r>    17.2108     0.1595     0.1595     0.1595    -0.0000    -0.0000     0.0000 </r>
      <r>    18.7946     0.2884     0.2884     0.2884     0.0000    -0.0000     0.0000 </r>
      <r>    20.3549     0.3908     0.3908     0.3908     0.0000    -0.0000     0.0000 </r>
      <r>    21.8944     0.4740     0.4740     0.4740     0.0000    -0.0000     0.0000 </r>
      <r>    23.4164     0.5426     0.5426     0.5426     0.0000    -0.0000     0.0000 </r>
      <r>    24.9246     0.5988     0.5988     0.5988     0.0000     0.0000     0.0000 </r>
      <r>    26.4231     0.6454     0.6454     0.6454     0.0000     0.0000     0.0000 </r>
      <r>    27.9165     0.6846     0.6846     0.6846     0.0000     0.0000     0.0000 </r>
      <r>    29.4092     0.7176     0.7176     0.7176     0.0000     0.0000     0.0000 </r>
      <r>    30.9066     0.7458     0.7457     0.7457     0.0000     0.0000     0.0000 </r>
      <r>    32.4139     0.7701     0.7701     0.7701     0.0000     0.0000     0.0000 </r>
      <r>    33.9370     0.7911     0.7911     0.7911     0.0000     0.0000     0.0000 </r>
      <r>    35.4821     0.8094     0.8094     0.8094     0.0000     0.0000     0.0000 </r>
      <r>    37.0561     0.8256     0.8256     0.8256     0.0000     0.0000     0.0000 </r>
      <r>    38.6664     0.8397     0.8396     0.8396     0.0000     0.0000     0.0000 </r>
      <r>    40.3212     0.8523     0.8523     0.8523     0.0000     0.0000     0.0000 </r>
      <r>    42.0298     0.8642     0.8642     0.8642     0.0000     0.0000     0.0000 </r>
      <r>    43.8023     0.8757     0.8757     0.8757     0.0000     0.0000     0.0000 </r>
      <r>    45.6504     0.8863     0.8863     0.8863     0.0000     0.0000     0.0000 </r>
      <r>    47.5877     0.8958     0.8958     0.8958     0.0000     0.0000     0.0000 </r>
      <r>    49.6292     0.9047     0.9047     0.9047     0.0000     0.0000     0.0000 </r>
      <r>    51.7935     0.9136     0.9136     0.9136     0.0000     0.0000     0.0000 </r>
      <r>    54.1012     0.9223     0.9223     0.9223     0.0000     0.0000     0.0000 </r>
      <r>    56.5780     0.9302     0.9302     0.9302     0.0000     0.0000     0.0000 </r>
      <r>    59.2540     0.9374     0.9374     0.9374     0.0000     0.0000     0.0000 </r>
      <r>    62.1659     0.9438     0.9438     0.9438     0.0000     0.0000     0.0000 </r>
      <r>    65.3588     0.9502     0.9502     0.9502     0.0000     0.0000     0.0000 </r>
      <r>    68.8884     0.9572     0.9572     0.9572     0.0000     0.0000     0.0000 </r>
      <r>    72.8250     0.9652     0.9652     0.9652     0.0000     0.0000     0.0000 </r>
      <r>    77.2579     0.9738     0.9738     0.9738    -0.0000    -0.0000    -0.0000 </r>
      <r>    82.3029     0.9834     0.9834     0.9834    -0.0000    -0.0000    -0.0000 </r>
      <r>    88.1118     0.9941     0.9941     0.9941     0.0000     0.0000     0.0000 </r>
      <r>    94.8885     1.0011     1.0011     1.0011     0.0000     0.0000     0.0000 </r>
      <r>   102.9133     1.0015     1.0015     1.0015     0.0000     0.0000     0.0000 </r>
      <r>   112.5806     0.9938     0.9938     0.9938     0.0000     0.0000     0.0000 </r>
      <r>   124.4649     0.9823     0.9823     0.9823     0.0000     0.0000     0.0000 </r>
      <r>   139.4354     0.9734     0.9734     0.9734     0.0000     0.0000     0.0000 </r>
      <r>   158.8716     0.9713     0.9713     0.9713     0.0000     0.0000     0.0000 </r>
      <r>   185.1024     0.9797     0.9797     0.9797    -0.0000    -0.0000    -0.0000 </r>
      <r>   222.3914     0.9880     0.9880     0.9880    -0.0000    -0.0000    -0.0000 </r>
     </set>
    </array>
   </real>
  </dielectricfunction>
  <varray name="epsilon_diag_mic" >
   <v>       0.00000000      10.77764888 </v>
   <v>       1.98994566       1.73081651 </v>
   <v>       3.97989133       1.09380246 </v>
   <v>       5.96983699       1.00555062 </v>
   <v>       7.95978266       1.00113342 </v>
   <v>       7.95978266       1.00113342 </v>
   <v>       5.96983699       1.00555062 </v>
   <v>       3.97989133       1.09380248 </v>
   <v>       1.98994566       1.73081700 </v>
   <v>       1.98994567       1.73081469 </v>
   <v>       2.29779133       1.56141010 </v>
   <v>       3.81045585       1.11483972 </v>
   <v>       5.62841630       1.00891631 </v>
   <v>       7.53381270       1.00145655 </v>
   <v>       9.47403636       1.00049933 </v>
   <v>       8.82483505       1.00071335 </v>
   <v>       6.89337399       1.00220178 </v>
   <v>       5.00792010       1.02199571 </v>
   <v>       3.24956766       1.22607760 </v>
   <v>       3.97989133       1.09379055 </v>
   <v>       3.81045585       1.11483458 </v>
   <v>       4.59558266       1.03902710 </v>
   <v>       5.96983700       1.00545823 </v>
   <v>       7.62091169       1.00140895 </v>
   <v>       9.40411632       1.00051124 </v>
   <v>       8.20475616       1.00100202 </v>
   <v>       6.49913532       1.00300617 </v>
   <v>       5.00792010       1.02199491 </v>
   <v>       5.96983700       1.00554847 </v>
   <v>       5.62841630       1.00891294 </v>
   <v>       5.96983700       1.00545776 </v>
   <v>       6.89337400       1.00222035 </v>
   <v>       8.20475617       1.00100523 </v>
   <v>       9.74870299       1.00041171 </v>
   <v>       9.74870299       1.00041105 </v>
   <v>       8.20475616       1.00100197 </v>
   <v>       6.89337399       1.00220156 </v>
   <v>       7.95978266       1.00113329 </v>
   <v>       7.53381270       1.00145633 </v>
   <v>       7.62091169       1.00140879 </v>
   <v>       8.20475617       1.00100517 </v>
   <v>       9.19116533       1.00057024 </v>
   <v>       8.82483505       1.00071332 </v>
   <v>       9.47403636       1.00049928 </v>
   <v>       9.40411632       1.00051119 </v>
   <v>       9.74870299       1.00041168 </v>
   <v>       9.74870299       1.00041168 </v>
   <v>       9.40411632       1.00051119 </v>
   <v>       9.47403636       1.00049928 </v>
   <v>       7.95978266       1.00113329 </v>
   <v>       8.82483505       1.00071332 </v>
   <v>       9.19116533       1.00057024 </v>
   <v>       8.20475617       1.00100517 </v>
   <v>       7.62091169       1.00140879 </v>
   <v>       7.53381270       1.00145633 </v>
   <v>       5.96983700       1.00554846 </v>
   <v>       6.89337399       1.00220156 </v>
   <v>       8.20475616       1.00100197 </v>
   <v>       9.74870299       1.00041105 </v>
   <v>       9.74870299       1.00041171 </v>
   <v>       8.20475617       1.00100523 </v>
   <v>       6.89337400       1.00222035 </v>
   <v>       5.96983700       1.00545776 </v>
   <v>       5.62841630       1.00891293 </v>
   <v>       3.97989133       1.09379056 </v>
   <v>       5.00792010       1.02199490 </v>
   <v>       6.49913532       1.00300617 </v>
   <v>       8.20475616       1.00100202 </v>
   <v>       9.40411632       1.00051124 </v>
   <v>       7.62091169       1.00140895 </v>
   <v>       5.96983700       1.00545823 </v>
   <v>       4.59558266       1.03902710 </v>
   <v>       3.81045585       1.11483457 </v>
   <v>       1.98994567       1.73081507 </v>
   <v>       3.24956766       1.22607757 </v>
   <v>       5.00792010       1.02199571 </v>
   <v>       6.89337399       1.00220178 </v>
   <v>       8.82483505       1.00071335 </v>
   <v>       9.47403636       1.00049933 </v>
   <v>       7.53381270       1.00145655 </v>
   <v>       5.62841630       1.00891631 </v>
   <v>       3.81045585       1.11483971 </v>
   <v>       2.29779133       1.56141007 </v>
   <v>       1.98994567       1.73081444 </v>
   <v>       2.29779133       1.56141008 </v>
   <v>       3.81045585       1.11483969 </v>
   <v>       5.62841629       1.00891631 </v>
   <v>       7.53381269       1.00145655 </v>
   <v>       9.47403636       1.00049933 </v>
   <v>       8.82483505       1.00071335 </v>
   <v>       6.89337399       1.00220178 </v>
   <v>       5.00792010       1.02199571 </v>
   <v>       3.24956766       1.22607756 </v>
   <v>       2.29779133       1.56140976 </v>
   <v>       1.98994566       1.73082171 </v>
   <v>       3.24956766       1.22611204 </v>
   <v>       5.00792010       1.02200389 </v>
   <v>       6.89337399       1.00220224 </v>
   <v>       8.82483505       1.00071343 </v>
   <v>       9.47403636       1.00049929 </v>
   <v>       7.53381269       1.00145639 </v>
   <v>       5.62841629       1.00891630 </v>
   <v>       3.81045584       1.11484401 </v>
   <v>       3.81045584       1.11483170 </v>
   <v>       3.24956766       1.22609524 </v>
   <v>       3.81045585       1.11484877 </v>
   <v>       5.13801761       1.01804078 </v>
   <v>       6.79695842       1.00236429 </v>
   <v>       8.59754791       1.00079499 </v>
   <v>       8.59754790       1.00079486 </v>
   <v>       6.79695842       1.00236365 </v>
   <v>       5.13801761       1.01803464 </v>
   <v>       5.62841629       1.00891259 </v>
   <v>       5.00792010       1.02199670 </v>
   <v>       5.13801761       1.01803727 </v>
   <v>       5.96983700       1.00545881 </v>
   <v>       7.26625419       1.00170333 </v>
   <v>       8.82483506       1.00071250 </v>
   <v>       8.28480446       1.00097496 </v>
   <v>       6.79695842       1.00236347 </v>
   <v>       7.53381269       1.00145641 </v>
   <v>       6.89337399       1.00220169 </v>
   <v>       6.79695842       1.00236379 </v>
   <v>       7.26625419       1.00170323 </v>
   <v>       8.20475617       1.00100527 </v>
   <v>       9.47403636       1.00049842 </v>
   <v>       8.59754790       1.00079486 </v>
   <v>       9.47403636       1.00049929 </v>
   <v>       8.82483505       1.00071336 </v>
   <v>       8.59754791       1.00079490 </v>
   <v>       8.82483506       1.00071244 </v>
   <v>       9.47403636       1.00049839 </v>
   <v>       8.82483506       1.00071330 </v>
   <v>       9.47403636       1.00049926 </v>
   <v>       9.47403637       1.00049834 </v>
   <v>       8.82483506       1.00071236 </v>
   <v>       8.59754791       1.00079483 </v>
   <v>       6.89337400       1.00220147 </v>
   <v>       7.53381270       1.00145624 </v>
   <v>       8.59754791       1.00079483 </v>
   <v>       9.47403637       1.00049836 </v>
   <v>       8.20475617       1.00100514 </v>
   <v>       7.26625420       1.00170298 </v>
   <v>       6.79695842       1.00236343 </v>
   <v>       5.00792011       1.02199494 </v>
   <v>       5.62841630       1.00891599 </v>
   <v>       6.79695842       1.00236363 </v>
   <v>       8.28480446       1.00097498 </v>
   <v>       8.82483506       1.00071243 </v>
   <v>       7.26625420       1.00170308 </v>
   <v>       5.96983700       1.00545860 </v>
   <v>       5.13801762       1.01803468 </v>
   <v>       3.24956767       1.22607677 </v>
   <v>       3.81045585       1.11484295 </v>
   <v>       5.13801761       1.01803497 </v>
   <v>       6.79695842       1.00236373 </v>
   <v>       8.59754790       1.00079491 </v>
   <v>       8.59754791       1.00079491 </v>
   <v>       6.79695842       1.00236373 </v>
   <v>       5.13801762       1.01803498 </v>
   <v>       3.81045585       1.11484296 </v>
   <v>       3.97989133       1.09379054 </v>
   <v>       3.81045585       1.11483459 </v>
   <v>       4.59558266       1.03902710 </v>
   <v>       5.96983700       1.00545823 </v>
   <v>       7.62091169       1.00140895 </v>
   <v>       9.40411632       1.00051124 </v>
   <v>       8.20475617       1.00100202 </v>
   <v>       6.49913533       1.00300618 </v>
   <v>       5.00792010       1.02199491 </v>
   <v>       3.81045585       1.11483168 </v>
   <v>       3.24956766       1.22609522 </v>
   <v>       3.81045585       1.11484878 </v>
   <v>       5.13801761       1.01804078 </v>
   <v>       6.79695842       1.00236428 </v>
   <v>       8.59754790       1.00079499 </v>
   <v>       8.59754790       1.00079486 </v>
   <v>       6.79695842       1.00236365 </v>
   <v>       5.13801761       1.01803465 </v>
   <v>       4.59558266       1.03902433 </v>
   <v>       3.81045584       1.11485423 </v>
   <v>       3.97989133       1.09382627 </v>
   <v>       5.00792010       1.02200548 </v>
   <v>       6.49913533       1.00300736 </v>
   <v>       8.20475617       1.00100222 </v>
   <v>       9.40411632       1.00051118 </v>
   <v>       7.62091169       1.00140875 </v>
   <v>       5.96983699       1.00545865 </v>
   <v>       5.96983699       1.00545769 </v>
   <v>       5.13801761       1.01803843 </v>
   <v>       5.00792010       1.02200364 </v>
   <v>       5.62841629       1.00892032 </v>
   <v>       6.79695842       1.00236455 </v>
   <v>       8.28480446       1.00097524 </v>
   <v>       8.82483505       1.00071238 </v>
   <v>       7.26625419       1.00170304 </v>
   <v>       7.62091169       1.00140886 </v>
   <v>       6.79695842       1.00236378 </v>
   <v>       6.49913532       1.00300684 </v>
   <v>       6.79695842       1.00236438 </v>
   <v>       7.62091169       1.00140910 </v>
   <v>       8.82483505       1.00071255 </v>
   <v>       8.82483505       1.00071239 </v>
   <v>       9.40411631       1.00051121 </v>
   <v>       8.59754790       1.00079491 </v>
   <v>       8.20475616       1.00100211 </v>
   <v>       8.28480446       1.00097514 </v>
   <v>       8.82483505       1.00071251 </v>
   <v>       9.74870299       1.00041174 </v>
   <v>       8.20475617       1.00100190 </v>
   <v>       8.59754791       1.00079480 </v>
   <v>       9.40411632       1.00051117 </v>
   <v>       9.74870300       1.00041167 </v>
   <v>       8.82483506       1.00071234 </v>
   <v>       8.28480447       1.00097488 </v>
   <v>       6.49913533       1.00300603 </v>
   <v>       6.79695842       1.00236350 </v>
   <v>       7.62091169       1.00140869 </v>
   <v>       8.82483506       1.00071237 </v>
   <v>       8.82483506       1.00071237 </v>
   <v>       7.62091170       1.00140869 </v>
   <v>       6.79695843       1.00236350 </v>
   <v>       5.00792011       1.02199495 </v>
   <v>       5.13801762       1.01803468 </v>
   <v>       5.96983700       1.00545860 </v>
   <v>       7.26625419       1.00170308 </v>
   <v>       8.82483505       1.00071243 </v>
   <v>       8.28480447       1.00097498 </v>
   <v>       6.79695842       1.00236364 </v>
   <v>       5.62841630       1.00891600 </v>
   <v>       5.96983700       1.00554847 </v>
   <v>       5.62841630       1.00891294 </v>
   <v>       5.96983700       1.00545777 </v>
   <v>       6.89337400       1.00222035 </v>
   <v>       8.20475617       1.00100523 </v>
   <v>       9.74870299       1.00041171 </v>
   <v>       9.74870299       1.00041105 </v>
   <v>       8.20475617       1.00100197 </v>
   <v>       6.89337400       1.00220156 </v>
   <v>       5.62841630       1.00891259 </v>
   <v>       5.00792010       1.02199670 </v>
   <v>       5.13801762       1.01803727 </v>
   <v>       5.96983700       1.00545881 </v>
   <v>       7.26625419       1.00170333 </v>
   <v>       8.82483505       1.00071250 </v>
   <v>       8.28480446       1.00097496 </v>
   <v>       6.79695842       1.00236347 </v>
   <v>       5.96983699       1.00545769 </v>
   <v>       5.13801761       1.01803843 </v>
   <v>       5.00792010       1.02200364 </v>
   <v>       5.62841630       1.00892032 </v>
   <v>       6.79695842       1.00236455 </v>
   <v>       8.28480446       1.00097524 </v>
   <v>       8.82483505       1.00071238 </v>
   <v>       7.26625419       1.00170304 </v>
   <v>       6.89337399       1.00222037 </v>
   <v>       5.96983699       1.00545957 </v>
   <v>       5.62841629       1.00892303 </v>
   <v>       5.96983699       1.00555490 </v>
   <v>       6.89337399       1.00220266 </v>
   <v>       8.20475617       1.00100232 </v>
   <v>       9.74870299       1.00041114 </v>
   <v>       9.74870299       1.00041167 </v>
   <v>       8.20475616       1.00100515 </v>
   <v>       8.20475616       1.00100520 </v>
   <v>       7.26625419       1.00170323 </v>
   <v>       6.79695842       1.00236443 </v>
   <v>       6.89337399       1.00220262 </v>
   <v>       7.53381269       1.00145683 </v>
   <v>       8.59754790       1.00079507 </v>
   <v>       9.47403636       1.00049835 </v>
   <v>       9.74870298       1.00041169 </v>
   <v>       8.82483505       1.00071245 </v>
   <v>       8.28480446       1.00097515 </v>
   <v>       8.20475616       1.00100224 </v>
   <v>       8.59754790       1.00079503 </v>
   <v>       9.40411632       1.00051129 </v>
   <v>       9.74870299       1.00041110 </v>
   <v>       9.74870300       1.00041103 </v>
   <v>       8.20475617       1.00100190 </v>
   <v>       8.28480447       1.00097488 </v>
   <v>       8.82483506       1.00071234 </v>
   <v>       9.74870299       1.00041167 </v>
   <v>       9.40411633       1.00051117 </v>
   <v>       8.59754791       1.00079481 </v>
   <v>       6.89337400       1.00220148 </v>
   <v>       6.79695843       1.00236343 </v>
   <v>       7.26625420       1.00170298 </v>
   <v>       8.20475617       1.00100514 </v>
   <v>       9.47403636       1.00049836 </v>
   <v>       8.59754791       1.00079483 </v>
   <v>       7.53381270       1.00145624 </v>
   <v>       7.95978267       1.00113329 </v>
   <v>       7.53381270       1.00145634 </v>
   <v>       7.62091170       1.00140879 </v>
   <v>       8.20475617       1.00100517 </v>
   <v>       9.19116533       1.00057024 </v>
   <v>       8.82483506       1.00071332 </v>
   <v>       7.53381270       1.00145641 </v>
   <v>       6.89337400       1.00220169 </v>
   <v>       6.79695842       1.00236380 </v>
   <v>       7.26625420       1.00170323 </v>
   <v>       8.20475617       1.00100527 </v>
   <v>       9.47403636       1.00049842 </v>
   <v>       8.59754791       1.00079486 </v>
   <v>       7.62091169       1.00140886 </v>
   <v>       6.79695842       1.00236378 </v>
   <v>       6.49913533       1.00300684 </v>
   <v>       6.79695842       1.00236439 </v>
   <v>       7.62091169       1.00140910 </v>
   <v>       8.82483506       1.00071255 </v>
   <v>       8.82483505       1.00071239 </v>
   <v>       8.20475616       1.00100520 </v>
   <v>       7.26625419       1.00170323 </v>
   <v>       6.79695842       1.00236444 </v>
   <v>       6.89337399       1.00220262 </v>
   <v>       7.53381270       1.00145683 </v>
   <v>       8.59754791       1.00079507 </v>
   <v>       9.47403636       1.00049835 </v>
   <v>       9.19116532       1.00057023 </v>
   <v>       8.20475616       1.00100525 </v>
   <v>       7.62091169       1.00140907 </v>
   <v>       7.53381269       1.00145681 </v>
   <v>       7.95978266       1.00113368 </v>
   <v>       8.82483505       1.00071350 </v>
   <v>       9.47403636       1.00049839 </v>
   <v>       8.82483505       1.00071251 </v>
   <v>       8.59754790       1.00079503 </v>
   <v>       8.82483505       1.00071348 </v>
   <v>       9.47403636       1.00049940 </v>
   <v>       8.82483506       1.00071330 </v>
   <v>       8.59754791       1.00079483 </v>
   <v>       8.82483506       1.00071236 </v>
   <v>       9.47403637       1.00049834 </v>
   <v>       9.47403637       1.00049926 </v>
   <v>       9.47403637       1.00049928 </v>
   <v>       9.40411633       1.00051120 </v>
   <v>       9.74870300       1.00041168 </v>
   <v>       9.47403637       1.00049929 </v>
   <v>       8.82483506       1.00071336 </v>
   <v>       8.59754791       1.00079490 </v>
   <v>       8.82483506       1.00071244 </v>
   <v>       9.47403637       1.00049839 </v>
   <v>       9.40411632       1.00051121 </v>
   <v>       8.59754791       1.00079492 </v>
   <v>       8.20475617       1.00100211 </v>
   <v>       8.28480447       1.00097515 </v>
   <v>       8.82483506       1.00071252 </v>
   <v>       9.74870299       1.00041174 </v>
   <v>       9.74870299       1.00041169 </v>
   <v>       8.82483505       1.00071245 </v>
   <v>       8.28480446       1.00097515 </v>
   <v>       8.20475617       1.00100224 </v>
   <v>       8.59754791       1.00079503 </v>
   <v>       9.40411632       1.00051129 </v>
   <v>       9.47403636       1.00049839 </v>
   <v>       8.82483505       1.00071251 </v>
   <v>       8.59754790       1.00079503 </v>
   <v>       8.82483505       1.00071348 </v>
   <v>       9.47403636       1.00049940 </v>
   <v>       9.74870299       1.00041173 </v>
   <v>       9.40411632       1.00051127 </v>
   <v>       9.47403636       1.00049939 </v>
   <v>       9.74870299       1.00041110 </v>
   <v>       9.74870299       1.00041110 </v>
   <v>       9.74870300       1.00041168 </v>
   <v>       9.40411633       1.00051120 </v>
   <v>       9.47403637       1.00049928 </v>
   <v>       9.47403636       1.00049939 </v>
   <v>       9.40411632       1.00051127 </v>
   <v>       9.74870299       1.00041173 </v>
   <v>       9.47403636       1.00049940 </v>
   <v>       8.82483505       1.00071348 </v>
   <v>       8.59754790       1.00079503 </v>
   <v>       8.82483505       1.00071251 </v>
   <v>       9.47403636       1.00049839 </v>
   <v>       9.74870299       1.00041169 </v>
   <v>       9.40411632       1.00051129 </v>
   <v>       8.59754791       1.00079503 </v>
   <v>       8.20475617       1.00100224 </v>
   <v>       8.28480446       1.00097515 </v>
   <v>       8.82483505       1.00071245 </v>
   <v>       9.40411632       1.00051121 </v>
   <v>       9.74870299       1.00041174 </v>
   <v>       8.82483506       1.00071252 </v>
   <v>       8.28480447       1.00097515 </v>
   <v>       8.20475617       1.00100211 </v>
   <v>       8.59754791       1.00079492 </v>
   <v>       9.47403637       1.00049929 </v>
   <v>       9.47403637       1.00049839 </v>
   <v>       8.82483506       1.00071244 </v>
   <v>       8.59754791       1.00079490 </v>
   <v>       8.82483506       1.00071336 </v>
   <v>       7.95978267       1.00113329 </v>
   <v>       8.82483506       1.00071332 </v>
   <v>       9.19116533       1.00057024 </v>
   <v>       8.20475617       1.00100517 </v>
   <v>       7.62091170       1.00140879 </v>
   <v>       7.53381270       1.00145633 </v>
   <v>       8.82483506       1.00071330 </v>
   <v>       9.47403637       1.00049926 </v>
   <v>       9.47403637       1.00049834 </v>
   <v>       8.82483506       1.00071236 </v>
   <v>       8.59754791       1.00079483 </v>
   <v>       9.47403636       1.00049940 </v>
   <v>       8.82483505       1.00071348 </v>
   <v>       8.59754790       1.00079503 </v>
   <v>       8.82483505       1.00071251 </v>
   <v>       9.47403636       1.00049839 </v>
   <v>       9.19116532       1.00057023 </v>
   <v>       8.82483505       1.00071350 </v>
   <v>       7.95978266       1.00113368 </v>
   <v>       7.53381269       1.00145681 </v>
   <v>       7.62091169       1.00140907 </v>
   <v>       8.20475616       1.00100525 </v>
   <v>       8.20475616       1.00100520 </v>
   <v>       9.47403636       1.00049835 </v>
   <v>       8.59754791       1.00079507 </v>
   <v>       7.53381270       1.00145683 </v>
   <v>       6.89337399       1.00220262 </v>
   <v>       6.79695842       1.00236444 </v>
   <v>       7.26625419       1.00170323 </v>
   <v>       7.62091169       1.00140886 </v>
   <v>       8.82483505       1.00071239 </v>
   <v>       8.82483506       1.00071255 </v>
   <v>       7.62091169       1.00140910 </v>
   <v>       6.79695842       1.00236439 </v>
   <v>       6.49913533       1.00300684 </v>
   <v>       6.79695842       1.00236378 </v>
   <v>       7.53381270       1.00145641 </v>
   <v>       8.59754791       1.00079486 </v>
   <v>       9.47403636       1.00049842 </v>
   <v>       8.20475617       1.00100527 </v>
   <v>       7.26625420       1.00170323 </v>
   <v>       6.79695842       1.00236380 </v>
   <v>       6.89337400       1.00220169 </v>
   <v>       5.96983700       1.00554847 </v>
   <v>       6.89337400       1.00220156 </v>
   <v>       8.20475617       1.00100197 </v>
   <v>       9.74870299       1.00041105 </v>
   <v>       9.74870299       1.00041171 </v>
   <v>       8.20475617       1.00100523 </v>
   <v>       6.89337400       1.00222035 </v>
   <v>       5.96983700       1.00545777 </v>
   <v>       5.62841630       1.00891294 </v>
   <v>       6.89337400       1.00220148 </v>
   <v>       7.53381270       1.00145624 </v>
   <v>       8.59754791       1.00079483 </v>
   <v>       9.47403636       1.00049836 </v>
   <v>       8.20475617       1.00100514 </v>
   <v>       7.26625420       1.00170298 </v>
   <v>       6.79695843       1.00236343 </v>
   <v>       8.20475617       1.00100190 </v>
   <v>       8.59754791       1.00079480 </v>
   <v>       9.40411633       1.00051117 </v>
   <v>       9.74870299       1.00041167 </v>
   <v>       8.82483506       1.00071234 </v>
   <v>       8.28480447       1.00097488 </v>
   <v>       9.74870300       1.00041103 </v>
   <v>       9.74870299       1.00041110 </v>
   <v>       9.74870298       1.00041169 </v>
   <v>       9.40411632       1.00051129 </v>
   <v>       8.59754790       1.00079503 </v>
   <v>       8.20475616       1.00100224 </v>
   <v>       8.28480446       1.00097515 </v>
   <v>       8.82483505       1.00071245 </v>
   <v>       8.20475616       1.00100520 </v>
   <v>       9.47403636       1.00049835 </v>
   <v>       8.59754790       1.00079507 </v>
   <v>       7.53381269       1.00145683 </v>
   <v>       6.89337399       1.00220262 </v>
   <v>       6.79695842       1.00236444 </v>
   <v>       7.26625419       1.00170323 </v>
   <v>       6.89337399       1.00222037 </v>
   <v>       8.20475616       1.00100515 </v>
   <v>       9.74870299       1.00041167 </v>
   <v>       9.74870299       1.00041114 </v>
   <v>       8.20475617       1.00100232 </v>
   <v>       6.89337399       1.00220267 </v>
   <v>       5.96983699       1.00555491 </v>
   <v>       5.62841629       1.00892303 </v>
   <v>       5.96983699       1.00545957 </v>
   <v>       5.96983699       1.00545769 </v>
   <v>       7.26625419       1.00170304 </v>
   <v>       8.82483505       1.00071238 </v>
   <v>       8.28480446       1.00097524 </v>
   <v>       6.79695842       1.00236455 </v>
   <v>       5.62841630       1.00892032 </v>
   <v>       5.00792010       1.02200364 </v>
   <v>       5.13801761       1.01803843 </v>
   <v>       5.62841630       1.00891259 </v>
   <v>       6.79695842       1.00236347 </v>
   <v>       8.28480446       1.00097496 </v>
   <v>       8.82483505       1.00071250 </v>
   <v>       7.26625419       1.00170333 </v>
   <v>       5.96983700       1.00545881 </v>
   <v>       5.13801762       1.01803727 </v>
   <v>       5.00792010       1.02199669 </v>
   <v>       3.97989133       1.09379056 </v>
   <v>       5.00792010       1.02199491 </v>
   <v>       6.49913533       1.00300618 </v>
   <v>       8.20475617       1.00100202 </v>
   <v>       9.40411632       1.00051124 </v>
   <v>       7.62091169       1.00140895 </v>
   <v>       5.96983700       1.00545823 </v>
   <v>       4.59558266       1.03902710 </v>
   <v>       3.81045585       1.11483458 </v>
   <v>       5.00792011       1.02199495 </v>
   <v>       5.62841630       1.00891600 </v>
   <v>       6.79695842       1.00236364 </v>
   <v>       8.28480447       1.00097498 </v>
   <v>       8.82483505       1.00071243 </v>
   <v>       7.26625419       1.00170308 </v>
   <v>       5.96983700       1.00545860 </v>
   <v>       5.13801762       1.01803468 </v>
   <v>       6.49913533       1.00300603 </v>
   <v>       6.79695843       1.00236350 </v>
   <v>       7.62091170       1.00140869 </v>
   <v>       8.82483506       1.00071237 </v>
   <v>       8.82483506       1.00071237 </v>
   <v>       7.62091169       1.00140869 </v>
   <v>       6.79695842       1.00236350 </v>
   <v>       8.20475617       1.00100190 </v>
   <v>       8.28480447       1.00097488 </v>
   <v>       8.82483506       1.00071234 </v>
   <v>       9.74870300       1.00041167 </v>
   <v>       9.40411632       1.00051117 </v>
   <v>       8.59754791       1.00079480 </v>
   <v>       9.40411631       1.00051121 </v>
   <v>       9.74870299       1.00041174 </v>
   <v>       8.82483505       1.00071251 </v>
   <v>       8.28480446       1.00097514 </v>
   <v>       8.20475616       1.00100211 </v>
   <v>       8.59754790       1.00079491 </v>
   <v>       7.62091169       1.00140886 </v>
   <v>       8.82483505       1.00071239 </v>
   <v>       8.82483505       1.00071255 </v>
   <v>       7.62091169       1.00140910 </v>
   <v>       6.79695842       1.00236439 </v>
   <v>       6.49913532       1.00300684 </v>
   <v>       6.79695842       1.00236378 </v>
   <v>       5.96983699       1.00545769 </v>
   <v>       7.26625419       1.00170304 </v>
   <v>       8.82483505       1.00071238 </v>
   <v>       8.28480446       1.00097524 </v>
   <v>       6.79695842       1.00236455 </v>
   <v>       5.62841629       1.00892032 </v>
   <v>       5.00792010       1.02200364 </v>
   <v>       5.13801761       1.01803843 </v>
   <v>       4.59558266       1.03902432 </v>
   <v>       5.96983699       1.00545865 </v>
   <v>       7.62091169       1.00140875 </v>
   <v>       9.40411632       1.00051118 </v>
   <v>       8.20475617       1.00100222 </v>
   <v>       6.49913533       1.00300736 </v>
   <v>       5.00792010       1.02200548 </v>
   <v>       3.97989133       1.09382625 </v>
   <v>       3.81045584       1.11485422 </v>
   <v>       3.81045585       1.11483167 </v>
   <v>       5.13801761       1.01803465 </v>
   <v>       6.79695842       1.00236365 </v>
   <v>       8.59754790       1.00079486 </v>
   <v>       8.59754790       1.00079499 </v>
   <v>       6.79695842       1.00236428 </v>
   <v>       5.13801761       1.01804078 </v>
   <v>       3.81045585       1.11484878 </v>
   <v>       3.24956766       1.22609521 </v>
   <v>       1.98994567       1.73081488 </v>
   <v>       3.24956766       1.22607757 </v>
   <v>       5.00792010       1.02199572 </v>
   <v>       6.89337399       1.00220178 </v>
   <v>       8.82483505       1.00071335 </v>
   <v>       9.47403636       1.00049933 </v>
   <v>       7.53381269       1.00145655 </v>
   <v>       5.62841629       1.00891631 </v>
   <v>       3.81045585       1.11483970 </v>
   <v>       2.29779133       1.56141008 </v>
   <v>       3.24956767       1.22607676 </v>
   <v>       3.81045585       1.11484295 </v>
   <v>       5.13801762       1.01803498 </v>
   <v>       6.79695842       1.00236373 </v>
   <v>       8.59754791       1.00079491 </v>
   <v>       8.59754790       1.00079491 </v>
   <v>       6.79695842       1.00236373 </v>
   <v>       5.13801761       1.01803498 </v>
   <v>       3.81045585       1.11484295 </v>
   <v>       5.00792011       1.02199494 </v>
   <v>       5.13801762       1.01803468 </v>
   <v>       5.96983700       1.00545860 </v>
   <v>       7.26625420       1.00170308 </v>
   <v>       8.82483506       1.00071243 </v>
   <v>       8.28480446       1.00097498 </v>
   <v>       6.79695842       1.00236363 </v>
   <v>       5.62841630       1.00891599 </v>
   <v>       6.89337400       1.00220148 </v>
   <v>       6.79695842       1.00236343 </v>
   <v>       7.26625420       1.00170298 </v>
   <v>       8.20475617       1.00100514 </v>
   <v>       9.47403637       1.00049836 </v>
   <v>       8.59754791       1.00079483 </v>
   <v>       7.53381270       1.00145624 </v>
   <v>       8.82483506       1.00071330 </v>
   <v>       8.59754791       1.00079483 </v>
   <v>       8.82483506       1.00071236 </v>
   <v>       9.47403637       1.00049834 </v>
   <v>       9.47403636       1.00049926 </v>
   <v>       9.47403636       1.00049929 </v>
   <v>       9.47403636       1.00049839 </v>
   <v>       8.82483506       1.00071244 </v>
   <v>       8.59754791       1.00079490 </v>
   <v>       8.82483505       1.00071336 </v>
   <v>       7.53381269       1.00145640 </v>
   <v>       8.59754790       1.00079486 </v>
   <v>       9.47403636       1.00049842 </v>
   <v>       8.20475617       1.00100527 </v>
   <v>       7.26625419       1.00170323 </v>
   <v>       6.79695842       1.00236379 </v>
   <v>       6.89337399       1.00220169 </v>
   <v>       5.62841629       1.00891259 </v>
   <v>       6.79695842       1.00236347 </v>
   <v>       8.28480446       1.00097496 </v>
   <v>       8.82483506       1.00071250 </v>
   <v>       7.26625419       1.00170333 </v>
   <v>       5.96983700       1.00545881 </v>
   <v>       5.13801761       1.01803727 </v>
   <v>       5.00792010       1.02199670 </v>
   <v>       3.81045584       1.11483168 </v>
   <v>       5.13801761       1.01803464 </v>
   <v>       6.79695842       1.00236365 </v>
   <v>       8.59754790       1.00079486 </v>
   <v>       8.59754791       1.00079499 </v>
   <v>       6.79695842       1.00236428 </v>
   <v>       5.13801761       1.01804078 </v>
   <v>       3.81045585       1.11484876 </v>
   <v>       3.24956766       1.22609521 </v>
   <v>       2.29779133       1.56140971 </v>
   <v>       3.81045584       1.11484401 </v>
   <v>       5.62841629       1.00891630 </v>
   <v>       7.53381269       1.00145639 </v>
   <v>       9.47403636       1.00049929 </v>
   <v>       8.82483505       1.00071343 </v>
   <v>       6.89337399       1.00220223 </v>
   <v>       5.00792010       1.02200389 </v>
   <v>       3.24956766       1.22611204 </v>
   <v>       1.98994566       1.73082120 </v>
  </varray>
  <dielectricfunction comment="1 + v P,  with REDUCIBLE POLARIZABILTY P=P_0 (1 -(v+f) P_0)^-1">
   <imag>
    <array>
     <dimension dim="1">gridpoints</dimension>
     <field>energy</field>
     <field>xx</field>
     <field>yy</field>
     <field>zz</field>
     <field>xy</field>
     <field>yz</field>
     <field>zx</field>
     <set>
      <r>     0.0000    -0.0000    -0.0000     0.0000    -0.0000    -0.0000    -0.0000 </r>
      <r>     1.8002     4.1692     4.1692     4.1691    -0.0000    -0.0000    -0.0000 </r>
      <r>     3.5943     6.8098     6.8098     6.8097    -0.0000    -0.0000    -0.0000 </r>
      <r>     5.3766     6.0844     6.0844     6.0844    -0.0000    -0.0000    -0.0000 </r>
      <r>     7.1421     4.1538     4.1538     4.1538    -0.0000    -0.0000    -0.0000 </r>
[...]
       <r>   45.6220    0.0000 </r>
       <r>   48.3316    0.0000 </r>
       <r>   48.3245    0.0000 </r>
       <r>   49.9560    0.0000 </r>
       <r>   50.5087    0.0000 </r>
       <r>   47.1129    0.0000 </r>
       <r>   48.1651    0.0000 </r>
       <r>   50.0221    0.0000 </r>
       <r>   50.8781    0.0000 </r>
       <r>   52.2723    0.0000 </r>
       <r>   53.0103    0.0000 </r>
       <r>   53.4391    0.0000 </r>
       <r>   54.3960    0.0000 </r>
       <r>   55.6099    0.0000 </r>
       <r>   56.8563    0.0000 </r>
       <r>   57.1377    0.0000 </r>
       <r>   57.5536    0.0000 </r>
       <r>   57.8886    0.0000 </r>
       <r>   58.6820    0.0000 </r>
       <r>   59.1327    0.0000 </r>
       <r>   60.0562    0.0000 </r>
       <r>   61.5188    0.0000 </r>
       <r>   61.9926    0.0000 </r>
       <r>   63.7757    0.0000 </r>
       <r>   64.0058    0.0000 </r>
       <r>   64.7588    0.0000 </r>
       <r>   65.8287    0.0000 </r>
       <r>   65.8412    0.0000 </r>
       <r>   67.4231    0.0000 </r>
      </set>
      <set comment="kpoint 16">
       <r> -149.5403    1.0000 </r>
       <r> -149.5403    1.0000 </r>
       <r>  -97.6832    1.0000 </r>
       <r>  -97.6832    1.0000 </r>
       <r>  -97.6738    1.0000 </r>
       <r>  -97.6738    1.0000 </r>
       <r>  -97.6655    1.0000 </r>
       <r>  -97.6655    1.0000 </r>
       <r>   -6.3030    1.0000 </r>
       <r>   -6.3030    1.0000 </r>
       <r>   -1.8121    1.0000 </r>
       <r>   -1.8121    1.0000 </r>
       <r>    6.0177    0.0000 </r>
       <r>    6.0177    0.0000 </r>
       <r>   10.3454    0.0000 </r>
       <r>   10.3454    0.0000 </r>
       <r>   14.4169    0.0000 </r>
       <r>   14.4169    0.0000 </r>
       <r>   16.8409    0.0000 </r>
       <r>   16.8409    0.0000 </r>
       <r>   20.3855    0.0000 </r>
       <r>   20.3855    0.0000 </r>
       <r>   21.1662    0.0000 </r>
       <r>   21.1662    0.0000 </r>
       <r>   22.5175    0.0000 </r>
       <r>   22.5175    0.0000 </r>
       <r>   25.8598    0.0000 </r>
       <r>   25.8598    0.0000 </r>
       <r>   27.4611    0.0000 </r>
       <r>   27.4611    0.0000 </r>
       <r>   28.8762    0.0000 </r>
       <r>   28.8762    0.0000 </r>
       <r>   34.6697    0.0000 </r>
       <r>   34.6697    0.0000 </r>
       <r>   35.3726    0.0000 </r>
       <r>   35.3726    0.0000 </r>
       <r>   37.0832    0.0000 </r>
       <r>   37.0832    0.0000 </r>
       <r>   41.6540    0.0000 </r>
       <r>   41.6540    0.0000 </r>
       <r>   42.5689    0.0000 </r>
       <r>   42.5689    0.0000 </r>
       <r>   46.0399    0.0000 </r>
       <r>   46.0399    0.0000 </r>
       <r>   48.0890    0.0000 </r>
       <r>   48.0890    0.0000 </r>
       <r>   49.0416    0.0000 </r>
       <r>   49.0416    0.0000 </r>
       <r>   49.0011    0.0000 </r>
       <r>   49.0011    0.0000 </r>
       <r>   50.5393    0.0000 </r>
       <r>   50.5393    0.0000 </r>
       <r>   52.5034    0.0000 </r>
       <r>   52.5034    0.0000 </r>
       <r>   52.8157    0.0000 </r>
       <r>   52.8157    0.0000 </r>
       <r>   56.5129    0.0000 </r>
       <r>   56.5129    0.0000 </r>
       <r>   57.4192    0.0000 </r>
       <r>   57.4192    0.0000 </r>
       <r>   59.2395    0.0000 </r>
       <r>   59.2395    0.0000 </r>
       <r>   60.3597    0.0000 </r>
       <r>   60.3597    0.0000 </r>
       <r>   61.4278    0.0000 </r>
       <r>   61.4278    0.0000 </r>
       <r>   64.1658    0.0000 </r>
       <r>   64.1658    0.0000 </r>
       <r>   65.6036    0.0000 </r>
       <r>   65.6036    0.0000 </r>
       <r>   67.0517    0.0000 </r>
       <r>   67.0517    0.0000 </r>
      </set>
     </set>
    </set>
   </array>
  </eigenvalues>
  <separator name="orbital magnetization" >
   <v name="MAGDIPOLOUT">      0.00000000      0.00000000      0.00000000</v>
  </separator>
  <dos>
   <i name="efermi">      2.37222257 </i>
   <total>
    <array>
     <dimension dim="1">gridpoints</dimension>
     <dimension dim="2">spin</dimension>
     <field>energy</field>
     <field>total</field>
     <field>integrated</field>
     <set>
      <set comment="spin 1">
       <r>  -160.6050     0.0000     0.0000 </r>
       <r>  -159.7962     0.0000     0.0000 </r>
       <r>  -158.9873     0.0000     0.0000 </r>
       <r>  -158.1785     0.0000     0.0000 </r>
       <r>  -157.3697     0.0000     0.0000 </r>
       <r>  -156.5609     0.0000     0.0000 </r>
       <r>  -155.7521     0.0000     0.0000 </r>
       <r>  -154.9432     0.0000     0.0000 </r>
       <r>  -154.1344     0.0000     0.0000 </r>
       <r>  -153.3256     0.0000     0.0000 </r>
       <r>  -152.5168     0.0000     0.0000 </r>
       <r>  -151.7080     0.0000     0.0000 </r>
       <r>  -150.8991     0.0000     0.0000 </r>
       <r>  -150.0903     0.0000     0.0000 </r>
       <r>  -149.2815     4.9455     4.0000 </r>
       <r>  -148.4727     0.0000     4.0000 </r>
       <r>  -147.6639     0.0000     4.0000 </r>
       <r>  -146.8550     0.0000     4.0000 </r>
       <r>  -146.0462     0.0000     4.0000 </r>
       <r>  -145.2374     0.0000     4.0000 </r>
       <r>  -144.4286     0.0000     4.0000 </r>
       <r>  -143.6198     0.0000     4.0000 </r>
       <r>  -142.8109     0.0000     4.0000 </r>
       <r>  -142.0021     0.0000     4.0000 </r>
       <r>  -141.1933     0.0000     4.0000 </r>
       <r>  -140.3845     0.0000     4.0000 </r>
       <r>  -139.5757     0.0000     4.0000 </r>
       <r>  -138.7668     0.0000     4.0000 </r>
       <r>  -137.9580     0.0000     4.0000 </r>
       <r>  -137.1492     0.0000     4.0000 </r>
       <r>  -136.3404     0.0000     4.0000 </r>
       <r>  -135.5316     0.0000     4.0000 </r>
       <r>  -134.7227     0.0000     4.0000 </r>
       <r>  -133.9139     0.0000     4.0000 </r>
       <r>  -133.1051     0.0000     4.0000 </r>
       <r>  -132.2963     0.0000     4.0000 </r>
       <r>  -131.4875     0.0000     4.0000 </r>
       <r>  -130.6786     0.0000     4.0000 </r>
       <r>  -129.8698     0.0000     4.0000 </r>
       <r>  -129.0610     0.0000     4.0000 </r>
       <r>  -128.2522     0.0000     4.0000 </r>
       <r>  -127.4434     0.0000     4.0000 </r>
       <r>  -126.6345     0.0000     4.0000 </r>
       <r>  -125.8257     0.0000     4.0000 </r>
       <r>  -125.0169     0.0000     4.0000 </r>
       <r>  -124.2081     0.0000     4.0000 </r>
       <r>  -123.3993     0.0000     4.0000 </r>
       <r>  -122.5904     0.0000     4.0000 </r>
       <r>  -121.7816     0.0000     4.0000 </r>
       <r>  -120.9728     0.0000     4.0000 </r>
       <r>  -120.1640     0.0000     4.0000 </r>
       <r>  -119.3552     0.0000     4.0000 </r>
       <r>  -118.5463     0.0000     4.0000 </r>
       <r>  -117.7375     0.0000     4.0000 </r>
       <r>  -116.9287     0.0000     4.0000 </r>
       <r>  -116.1199     0.0000     4.0000 </r>
       <r>  -115.3111     0.0000     4.0000 </r>
       <r>  -114.5022     0.0000     4.0000 </r>
       <r>  -113.6934     0.0000     4.0000 </r>
       <r>  -112.8846     0.0000     4.0000 </r>
       <r>  -112.0758     0.0000     4.0000 </r>
       <r>  -111.2670     0.0000     4.0000 </r>
       <r>  -110.4581     0.0000     4.0000 </r>
       <r>  -109.6493     0.0000     4.0000 </r>
       <r>  -108.8405     0.0000     4.0000 </r>
       <r>  -108.0317     0.0000     4.0000 </r>
       <r>  -107.2229     0.0000     4.0000 </r>
       <r>  -106.4140     0.0000     4.0000 </r>
       <r>  -105.6052     0.0000     4.0000 </r>
       <r>  -104.7964     0.0000     4.0000 </r>
       <r>  -103.9876     0.0000     4.0000 </r>
       <r>  -103.1788     0.0000     4.0000 </r>
       <r>  -102.3699     0.0000     4.0000 </r>
       <r>  -101.5611     0.0000     4.0000 </r>
       <r>  -100.7523     0.0000     4.0000 </r>
       <r>   -99.9435     0.0000     4.0000 </r>
       <r>   -99.1347     0.0000     4.0000 </r>
       <r>   -98.3258     0.0000     4.0000 </r>
       <r>   -97.5170    14.8363    15.9999 </r>
       <r>   -96.7082     0.0000    16.0000 </r>
       <r>   -95.8994     0.0000    16.0000 </r>
       <r>   -95.0906     0.0000    16.0000 </r>
       <r>   -94.2817     0.0000    16.0000 </r>
       <r>   -93.4729     0.0000    16.0000 </r>
       <r>   -92.6641     0.0000    16.0000 </r>
       <r>   -91.8553     0.0000    16.0000 </r>
       <r>   -91.0465     0.0000    16.0000 </r>
       <r>   -90.2376     0.0000    16.0000 </r>
       <r>   -89.4288     0.0000    16.0000 </r>
       <r>   -88.6200     0.0000    16.0000 </r>
       <r>   -87.8112     0.0000    16.0000 </r>
       <r>   -87.0024     0.0000    16.0000 </r>
       <r>   -86.1935     0.0000    16.0000 </r>
       <r>   -85.3847     0.0000    16.0000 </r>
       <r>   -84.5759     0.0000    16.0000 </r>
       <r>   -83.7671     0.0000    16.0000 </r>
       <r>   -82.9583     0.0000    16.0000 </r>
       <r>   -82.1495     0.0000    16.0000 </r>
       <r>   -81.3406     0.0000    16.0000 </r>
       <r>   -80.5318     0.0000    16.0000 </r>
       <r>   -79.7230     0.0000    16.0000 </r>
       <r>   -78.9142     0.0000    16.0000 </r>
       <r>   -78.1054     0.0000    16.0000 </r>
       <r>   -77.2965     0.0000    16.0000 </r>
       <r>   -76.4877     0.0000    16.0000 </r>
       <r>   -75.6789     0.0000    16.0000 </r>
       <r>   -74.8701     0.0000    16.0000 </r>
       <r>   -74.0613     0.0000    16.0000 </r>
       <r>   -73.2524     0.0000    16.0000 </r>
       <r>   -72.4436     0.0000    16.0000 </r>
       <r>   -71.6348     0.0000    16.0000 </r>
       <r>   -70.8260     0.0000    16.0000 </r>
       <r>   -70.0172     0.0000    16.0000 </r>
       <r>   -69.2083     0.0000    16.0000 </r>
       <r>   -68.3995     0.0000    16.0000 </r>
       <r>   -67.5907     0.0000    16.0000 </r>
       <r>   -66.7819     0.0000    16.0000 </r>
       <r>   -65.9731     0.0000    16.0000 </r>
       <r>   -65.1642     0.0000    16.0000 </r>
       <r>   -64.3554     0.0000    16.0000 </r>
       <r>   -63.5466     0.0000    16.0000 </r>
       <r>   -62.7378     0.0000    16.0000 </r>
       <r>   -61.9290     0.0000    16.0000 </r>
       <r>   -61.1201     0.0000    16.0000 </r>
       <r>   -60.3113     0.0000    16.0000 </r>
       <r>   -59.5025     0.0000    16.0000 </r>
       <r>   -58.6937     0.0000    16.0000 </r>
       <r>   -57.8849     0.0000    16.0000 </r>
       <r>   -57.0760     0.0000    16.0000 </r>
       <r>   -56.2672     0.0000    16.0000 </r>
       <r>   -55.4584     0.0000    16.0000 </r>
       <r>   -54.6496     0.0000    16.0000 </r>
       <r>   -53.8408     0.0000    16.0000 </r>
       <r>   -53.0319     0.0000    16.0000 </r>
       <r>   -52.2231     0.0000    16.0000 </r>
       <r>   -51.4143     0.0000    16.0000 </r>
       <r>   -50.6055     0.0000    16.0000 </r>
       <r>   -49.7967     0.0000    16.0000 </r>
       <r>   -48.9878     0.0000    16.0000 </r>
       <r>   -48.1790     0.0000    16.0000 </r>
       <r>   -47.3702     0.0000    16.0000 </r>
       <r>   -46.5614     0.0000    16.0000 </r>
       <r>   -45.7526     0.0000    16.0000 </r>
       <r>   -44.9437     0.0000    16.0000 </r>
       <r>   -44.1349     0.0000    16.0000 </r>
       <r>   -43.3261     0.0000    16.0000 </r>
       <r>   -42.5173     0.0000    16.0000 </r>
       <r>   -41.7085     0.0000    16.0000 </r>
       <r>   -40.8996     0.0000    16.0000 </r>
       <r>   -40.0908     0.0000    16.0000 </r>
       <r>   -39.2820     0.0000    16.0000 </r>
       <r>   -38.4732     0.0000    16.0000 </r>
       <r>   -37.6644     0.0000    16.0000 </r>
       <r>   -36.8555     0.0000    16.0000 </r>
       <r>   -36.0467     0.0000    16.0000 </r>
       <r>   -35.2379     0.0000    16.0000 </r>
       <r>   -34.4291     0.0000    16.0000 </r>
       <r>   -33.6203     0.0000    16.0000 </r>
       <r>   -32.8114     0.0000    16.0000 </r>
       <r>   -32.0026     0.0000    16.0000 </r>
       <r>   -31.1938     0.0000    16.0000 </r>
       <r>   -30.3850     0.0000    16.0000 </r>
       <r>   -29.5762     0.0000    16.0000 </r>
       <r>   -28.7673     0.0000    16.0000 </r>
       <r>   -27.9585     0.0000    16.0000 </r>
       <r>   -27.1497     0.0000    16.0000 </r>
       <r>   -26.3409     0.0000    16.0000 </r>
       <r>   -25.5321     0.0000    16.0000 </r>
       <r>   -24.7232     0.0000    16.0000 </r>
       <r>   -23.9144     0.0000    16.0000 </r>
       <r>   -23.1056     0.0000    16.0000 </r>
       <r>   -22.2968     0.0000    16.0000 </r>
       <r>   -21.4880     0.0000    16.0000 </r>
       <r>   -20.6791     0.0000    16.0000 </r>
       <r>   -19.8703     0.0000    16.0000 </r>
       <r>   -19.0615     0.0000    16.0000 </r>
       <r>   -18.2527     0.0000    16.0000 </r>
       <r>   -17.4439     0.0000    16.0000 </r>
       <r>   -16.6350     0.0000    16.0000 </r>
       <r>   -15.8262     0.0000    16.0000 </r>
       <r>   -15.0174     0.0000    16.0000 </r>
       <r>   -14.2086     0.0000    16.0000 </r>
       <r>   -13.3998     0.0000    16.0000 </r>
       <r>   -12.5909     0.0000    16.0000 </r>
       <r>   -11.7821     0.0000    16.0000 </r>
       <r>   -10.9733     0.0009    16.0007 </r>
       <r>   -10.1645     0.1603    16.1389 </r>
       <r>    -9.3557     0.3650    16.5452 </r>
       <r>    -8.5468     0.3431    16.8238 </r>
       <r>    -7.7380     0.0000    17.3056 </r>
       <r>    -6.9292     0.0000    17.8611 </r>
       <r>    -6.1204     0.3434    18.1389 </r>
       <r>    -5.3116     0.3506    18.4224 </r>
       <r>    -4.5027     0.0221    18.9716 </r>
       <r>    -3.6939     0.3385    19.4498 </r>
       <r>    -2.8851     0.0000    19.5278 </r>
       <r>    -2.0763     0.2747    20.0833 </r>
       <r>    -1.2675     0.0002    20.8613 </r>
       <r>    -0.4586     1.0055    21.9521 </r>
       <r>     0.3502     0.8236    23.1569 </r>
       <r>     1.1590     0.4119    23.7128 </r>
       <r>     1.9678     0.1832    23.9722 </r>
       <r>     2.7766     0.0000    24.0000 </r>
       <r>     3.5855     0.0000    24.0000 </r>
       <r>     4.3943     0.2747    24.3333 </r>
       <r>     5.2031     0.3570    24.7703 </r>
       <r>     6.0119     0.7333    25.7042 </r>
       <r>     6.8207     0.5577    26.6641 </r>
       <r>     7.6296     0.8877    28.1995 </r>
       <r>     8.4384     0.2747    29.2037 </r>
       <r>     9.2472     0.2994    29.6681 </r>
       <r>    10.0560     0.3130    30.3087 </r>
       <r>    10.8648     0.8343    31.5637 </r>
       <r>    11.6737     0.4009    33.0743 </r>
       <r>    12.4825     0.1179    33.2527 </r>
       <r>    13.2913     0.7556    34.5833 </r>
       <r>    14.1001     0.5712    35.3787 </r>
       <r>    14.9089     0.4413    36.4773 </r>
       <r>    15.7177     0.6310    37.6030 </r>
       <r>    16.5266     0.9335    38.6254 </r>
       <r>    17.3354     0.5089    40.4672 </r>
       <r>    18.1442     0.1381    41.1303 </r>
       <r>    18.9530     0.8010    42.1201 </r>
       <r>    19.7618     0.9044    43.0741 </r>
       <r>    20.5707     1.1681    44.9540 </r>
       <r>    21.3795     0.5552    46.1064 </r>
       <r>    22.1883     1.3051    47.3056 </r>
       <r>    22.9971     0.8378    48.6499 </r>
       <r>    23.8059     0.5667    49.4862 </r>
       <r>    24.6148     0.2064    50.5281 </r>
       <r>    25.4236     1.0809    52.7539 </r>
       <r>    26.2324     0.9158    53.8240 </r>
       <r>    27.0412     0.9743    55.0010 </r>
       <r>    27.8500     0.4953    56.5858 </r>
       <r>    28.6589     0.7842    57.4305 </r>
       <r>    29.4677     0.2752    58.7226 </r>
       <r>    30.2765     1.1931    59.9094 </r>
       <r>    31.0853     0.5929    60.8962 </r>
       <r>    31.8941     1.0267    62.3026 </r>
       <r>    32.7030     0.5267    63.8056 </r>
       <r>    33.5118     0.2133    64.9781 </r>
       <r>    34.3206     0.8537    66.0516 </r>
       <r>    35.1294     0.9463    68.5709 </r>
       <r>    35.9382     0.4850    69.4664 </r>
       <r>    36.7471     1.2691    71.0265 </r>
       <r>    37.5559     1.0072    72.8702 </r>
       <r>    38.3647     0.7153    73.8933 </r>
       <r>    39.1735     0.7291    75.4786 </r>
       <r>    39.9823     0.2736    76.4528 </r>
       <r>    40.7912     2.2028    78.4761 </r>
       <r>    41.6000     0.2303    79.0288 </r>
       <r>    42.4088     0.8246    80.4725 </r>
       <r>    43.2176     0.9754    82.1038 </r>
       <r>    44.0264     1.1995    83.7109 </r>
       <r>    44.8353     0.9232    84.7282 </r>
       <r>    45.6441     1.4324    86.6400 </r>
       <r>    46.4529     0.4341    88.7585 </r>
       <r>    47.2617     1.2282    90.9842 </r>
       <r>    48.0705     1.7489    93.4979 </r>
       <r>    48.8794     1.3345    96.8942 </r>
       <r>    49.6882     2.3557   100.7109 </r>
       <r>    50.4970     1.9947   104.1596 </r>
       <r>    51.3058     0.2914   106.0876 </r>
       <r>    52.1146     0.6562   107.1974 </r>
       <r>    52.9235     1.2901   110.0342 </r>
       <r>    53.7323     0.4091   111.4513 </r>
       <r>    54.5411     1.1070   112.4231 </r>
       <r>    55.3499     1.2397   114.0860 </r>
       <r>    56.1587     0.7327   116.0463 </r>
       <r>    56.9676     1.1972   117.6072 </r>
       <r>    57.7764     1.4571   120.1878 </r>
       <r>    58.5852     0.4359   121.6025 </r>
       <r>    59.3940     1.3715   123.4797 </r>
       <r>    60.2028     1.8286   125.9790 </r>
       <r>    61.0117     0.7501   128.0604 </r>
       <r>    61.8205     1.9561   130.8507 </r>
       <r>    62.6293     1.2535   132.4120 </r>
       <r>    63.4381     0.6400   133.2862 </r>
       <r>    64.2469     1.5469   136.2048 </r>
       <r>    65.0558     1.0770   137.7877 </r>
       <r>    65.8646     2.3749   140.3931 </r>
       <r>    66.6734     0.6904   142.0862 </r>
       <r>    67.4822     1.0606   143.7190 </r>
       <r>    68.2910     0.0000   143.9722 </r>
       <r>    69.0999     0.0000   143.9722 </r>
       <r>    69.9087     0.0000   143.9722 </r>
       <r>    70.7175     0.0000   143.9722 </r>
       <r>    71.5263     0.0000   144.0000 </r>
       <r>    72.3351     0.0000   144.0000 </r>
       <r>    73.1440     0.0000   144.0000 </r>
       <r>    73.9528     0.0000   144.0000 </r>
       <r>    74.7616     0.0000   144.0000 </r>
       <r>    75.5704     0.0000   144.0000 </r>
       <r>    76.3792     0.0000   144.0000 </r>
       <r>    77.1881     0.0000   144.0000 </r>
       <r>    77.9969     0.0000   144.0000 </r>
       <r>    78.8057     0.0000   144.0000 </r>
       <r>    79.6145     0.0000   144.0000 </r>
       <r>    80.4233     0.0000   144.0000 </r>
       <r>    81.2322     0.0000   144.0000 </r>
       <r>    82.0410     0.0000   144.0000 </r>
      </set>
     </set>
    </array>
   </total>
  </dos>
 </calculation>
 <structure name="finalpos" >
  <crystal>
   <varray name="basis" >
    <v>       3.86709000       0.00000000       0.00000000 </v>
    <v>       1.93354500       3.34899818       0.00000000 </v>
    <v>       1.93354500       1.11633273       3.15746576 </v>
   </varray>
   <i name="volume">     40.89195186 </i>
   <varray name="rec_basis" >
    <v>       0.25859238      -0.14929838      -0.10556990 </v>
    <v>       0.00000000       0.29859676      -0.10556990 </v>
    <v>       0.00000000       0.00000000       0.31670969 </v>
   </varray>
  </crystal>
  <varray name="positions" >
   <v>       0.00000000       0.00000000       0.00000000 </v>
   <v>       0.25000000       0.25000000       0.25000000 </v>
  </varray>
  <varray name="selective"  type="logical" >
   <v type="logical" >  T  T  T </v>
   <v type="logical" >  T  T  T </v>
  </varray>
  <nose>
   <v>      -3.00000000       0.00000000       0.00010000       0.00010000 </v>
  </nose>
 </structure>
</modeling>
