
     Program PWSCF v.7.0 starts on  1May2022 at 12:37:21 
        Git branch: HEAD
        Last git commit: bcbb9787c58f17a467653707917172ffc4053dd9
        Last git commit date: Tue Dec 21 10:27:04 2021 +0000
        Last git commit subject: Merge branch pw2gt_cmplx into develop         

     This program is part of the open-source Quantum ESPRESSO suite
     for quantum simulation of materials; please cite
         "P. Giannozzi et al., J. Phys.:Condens. Matter 21 395502 (2009);
         "P. Giannozzi et al., J. Phys.:Condens. Matter 29 465901 (2017);
         "P. Giannozzi et al., J. Chem. Phys. 152 154105 (2020);
          URL http://www.quantum-espresso.org", 
     in publications or presentations arising from this work. More details at
     http://www.quantum-espresso.org/quote

     Parallel version (MPI), running on    16 processors

     MPI processes distributed on     1 nodes
     K-points division:     npool     =      16
     104828 MiB available memory on the printing compute node when the environment starts

     Waiting for input...
     Reading input from standard input

     Current dimensions of program PWSCF are:
     Max number of different atomic species (ntypx) = 10
     Max number of k-points (npk) =  40000
     Max angular momentum in pseudopotentials (lmaxx) =  4

     Atomic positions and unit cell read from directory:
     /mnt/ceph/users/sbeck/QE_tmp/lco.save/
     Atomic positions from file used, from input discarded


     Subspace diagonalization in iterative solution of the eigenvalue problem:
     a serial algorithm will be used


     G-vector sticks info
     --------------------
     sticks:   dense  smooth     PW     G-vecs:    dense   smooth      PW
     Sum        6687    2223    929               185911    35659    9591

     Using Slab Decomposition



     bravais-lattice index     =            0
     lattice parameter (alat)  =      13.4809  a.u.
     unit-cell volume          =     649.6539 (a.u.)^3
     number of atoms/cell      =            7
     number of atomic types    =            3
     number of electrons       =        65.00
     number of Kohn-Sham states=           40
     kinetic-energy cutoff     =      55.0000  Ry
     charge density cutoff     =     660.0000  Ry
     Exchange-correlation= SLA  PW   PBE  PBE
                           (   1   4   3   4   0   0   0)

     celldm(1)=  13.480858  celldm(2)=   0.000000  celldm(3)=   0.000000
     celldm(4)=   0.000000  celldm(5)=   0.000000  celldm(6)=   0.000000

     crystal axes: (cart. coord. in units of alat)
               a(1) = (  -0.267621   0.267621   0.925612 )  
               a(2) = (   0.267621  -0.267621   0.925612 )  
               a(3) = (   0.267621   0.267621  -0.925612 )  

     reciprocal axes: (cart. coord. in units 2 pi/alat)
               b(1) = ( -0.000000  1.868314  0.540183 )  
               b(2) = (  1.868314 -0.000000  0.540183 )  
               b(3) = (  1.868314  1.868314 -0.000000 )  


     PseudoPot. # 1 for La read from file:
     /mnt/home/sbeck/work/pseudo/gbrv_v1.5/la_pbe_v1.uspp.F.UPF
     MD5 check sum: 5937b0c7494ba0601a847275249473aa
     Pseudo is Ultrasoft + core correction, Zval = 11.0
     Generated by new atomic code, or converted to UPF format
     Using radial grid of  995 points,  8 beta functions with: 
                l(1) =   0
                l(2) =   0
                l(3) =   1
                l(4) =   1
                l(5) =   2
                l(6) =   2
                l(7) =   3
                l(8) =   3
     Q(r) pseudized with  8 coefficients,  rinner =    1.700   1.700   1.700
                                                       1.700   1.700   1.700
                                                       1.700

     PseudoPot. # 2 for Cu read from file:
     /mnt/home/sbeck/work/pseudo/gbrv_v1.5/cu_pbe_v1.2.uspp.F.UPF
     MD5 check sum: 6e991ff952a84172a2a52a1c1e996048
     Pseudo is Ultrasoft + core correction, Zval = 19.0
     Generated by new atomic code, or converted to UPF format
     Using radial grid of  867 points,  6 beta functions with: 
                l(1) =   0
                l(2) =   0
                l(3) =   1
                l(4) =   1
                l(5) =   2
                l(6) =   2
     Q(r) pseudized with  8 coefficients,  rinner =    1.150   1.150   1.150
                                                       1.150   1.150

     PseudoPot. # 3 for O  read from file:
     /mnt/home/sbeck/work/pseudo/gbrv_v1.5/o_pbe_v1.2.uspp.F.UPF
     MD5 check sum: 734c27235a0248c51dbae37a1fbe46ec
     Pseudo is Ultrasoft + core correction, Zval =  6.0
     Generated by new atomic code, or converted to UPF format
     Using radial grid of  737 points,  5 beta functions with: 
                l(1) =   0
                l(2) =   0
                l(3) =   1
                l(4) =   1
                l(5) =   2
     Q(r) pseudized with  8 coefficients,  rinner =    0.900   0.900   0.900
                                                       0.900   0.900

     atomic species   valence    mass     pseudopotential
        La            11.00   138.90500     La( 1.00)
        Cu            19.00    58.69340     Cu( 1.00)
        O              6.00    15.99940     O ( 1.00)

     No symmetry found


                                    s                        frac. trans.

      isym =  1     identity                                     

 cryst.   s( 1) = (     1          0          0      )
                  (     0          1          0      )
                  (     0          0          1      )

 cart.    s( 1) = (  1.0000000 -0.0000000 -0.0000000 )
                  ( -0.0000000  1.0000000  0.0000000 )
                  (  0.0000000  0.0000000  1.0000000 )


   Cartesian axes

     site n.     atom                  positions (alat units)
         1           La  tau(   1) = (   0.0000000   0.0000000   0.6686911  )
         2           La  tau(   2) = (   0.2676210   0.2676210   0.2569211  )
         3           Cu  tau(   3) = (   0.0000000   0.0000000   0.0000000  )
         4           O   tau(   4) = (   0.0000000   0.2676210   0.0000000  )
         5           O   tau(   5) = (   0.2676210   0.0000000   0.0000000  )
         6           O   tau(   6) = (   0.0000000   0.0000000   0.3437490  )
         7           O   tau(   7) = (   0.2676210   0.2676210   0.5818632  )

   Crystallographic axes

     site n.     atom                  positions (cryst. coord.)
         1           La  tau(   1) = (  0.3612156  0.3612156 -0.0000000  )
         2           La  tau(   2) = (  0.6387844  0.6387844  1.0000000  )
         3           Cu  tau(   3) = (  0.0000000  0.0000000  0.0000000  )
         4           O   tau(   4) = (  0.5000000 -0.0000000  0.5000000  )
         5           O   tau(   5) = ( -0.0000000  0.5000000  0.5000000  )
         6           O   tau(   6) = (  0.1856874  0.1856874 -0.0000000  )
         7           O   tau(   7) = (  0.8143126  0.8143126  1.0000000  )

     number of k points=   343  Methfessel-Paxton smearing, width (Ry)=  0.0100
                       cart. coord. in units 2pi/alat
        k(    1) = (   0.0000000   0.0000000   0.0000000), wk =   0.0058309
        k(    2) = (   0.2669020   0.2669020  -0.0000000), wk =   0.0058309
        k(    3) = (   0.5338039   0.5338039  -0.0000000), wk =   0.0058309
        k(    4) = (   0.8007059   0.8007059  -0.0000000), wk =   0.0058309
        k(    5) = (   1.0676079   1.0676079  -0.0000000), wk =   0.0058309
        k(    6) = (   1.3345098   1.3345098  -0.0000000), wk =   0.0058309
        k(    7) = (   1.6014118   1.6014118  -0.0000000), wk =   0.0058309
        k(    8) = (   0.2669020  -0.0000000   0.0771690), wk =   0.0058309
        k(    9) = (   0.5338039   0.2669020   0.0771690), wk =   0.0058309
        k(   10) = (   0.8007059   0.5338039   0.0771690), wk =   0.0058309
        k(   11) = (   1.0676079   0.8007059   0.0771690), wk =   0.0058309
        k(   12) = (   1.3345098   1.0676079   0.0771690), wk =   0.0058309
        k(   13) = (   1.6014118   1.3345098   0.0771690), wk =   0.0058309
        k(   14) = (   1.8683138   1.6014118   0.0771690), wk =   0.0058309
        k(   15) = (   0.5338039  -0.0000000   0.1543380), wk =   0.0058309
        k(   16) = (   0.8007059   0.2669020   0.1543380), wk =   0.0058309
        k(   17) = (   1.0676079   0.5338039   0.1543380), wk =   0.0058309
        k(   18) = (   1.3345099   0.8007059   0.1543380), wk =   0.0058309
        k(   19) = (   1.6014118   1.0676079   0.1543380), wk =   0.0058309
        k(   20) = (   1.8683138   1.3345098   0.1543380), wk =   0.0058309
        k(   21) = (   2.1352158   1.6014118   0.1543380), wk =   0.0058309
        k(   22) = (   0.8007059  -0.0000000   0.2315070), wk =   0.0058309
        k(   23) = (   1.0676079   0.2669020   0.2315070), wk =   0.0058309
        k(   24) = (   1.3345099   0.5338039   0.2315070), wk =   0.0058309
        k(   25) = (   1.6014118   0.8007059   0.2315070), wk =   0.0058309
        k(   26) = (   1.8683138   1.0676079   0.2315070), wk =   0.0058309
        k(   27) = (   2.1352158   1.3345098   0.2315070), wk =   0.0058309
        k(   28) = (   2.4021177   1.6014118   0.2315070), wk =   0.0058309
        k(   29) = (   1.0676079  -0.0000000   0.3086760), wk =   0.0058309
        k(   30) = (   1.3345098   0.2669020   0.3086760), wk =   0.0058309
        k(   31) = (   1.6014118   0.5338039   0.3086760), wk =   0.0058309
        k(   32) = (   1.8683138   0.8007059   0.3086760), wk =   0.0058309
        k(   33) = (   2.1352158   1.0676079   0.3086760), wk =   0.0058309
        k(   34) = (   2.4021177   1.3345098   0.3086760), wk =   0.0058309
        k(   35) = (   2.6690197   1.6014118   0.3086760), wk =   0.0058309
        k(   36) = (   1.3345098  -0.0000000   0.3858450), wk =   0.0058309
        k(   37) = (   1.6014118   0.2669020   0.3858450), wk =   0.0058309
        k(   38) = (   1.8683138   0.5338039   0.3858450), wk =   0.0058309
        k(   39) = (   2.1352158   0.8007059   0.3858450), wk =   0.0058309
        k(   40) = (   2.4021177   1.0676079   0.3858450), wk =   0.0058309
        k(   41) = (   2.6690197   1.3345098   0.3858450), wk =   0.0058309
        k(   42) = (   2.9359217   1.6014118   0.3858450), wk =   0.0058309
        k(   43) = (   1.6014118  -0.0000000   0.4630140), wk =   0.0058309
        k(   44) = (   1.8683138   0.2669020   0.4630140), wk =   0.0058309
        k(   45) = (   2.1352158   0.5338039   0.4630140), wk =   0.0058309
        k(   46) = (   2.4021177   0.8007059   0.4630140), wk =   0.0058309
        k(   47) = (   2.6690197   1.0676079   0.4630140), wk =   0.0058309
        k(   48) = (   2.9359217   1.3345098   0.4630140), wk =   0.0058309
        k(   49) = (   3.2028237   1.6014118   0.4630140), wk =   0.0058309
        k(   50) = (  -0.0000000   0.2669020   0.0771690), wk =   0.0058309
        k(   51) = (   0.2669020   0.5338039   0.0771690), wk =   0.0058309
        k(   52) = (   0.5338039   0.8007059   0.0771690), wk =   0.0058309
        k(   53) = (   0.8007059   1.0676079   0.0771690), wk =   0.0058309
        k(   54) = (   1.0676079   1.3345098   0.0771690), wk =   0.0058309
        k(   55) = (   1.3345098   1.6014118   0.0771690), wk =   0.0058309
        k(   56) = (   1.6014118   1.8683138   0.0771690), wk =   0.0058309
        k(   57) = (   0.2669020   0.2669020   0.1543380), wk =   0.0058309
        k(   58) = (   0.5338039   0.5338039   0.1543380), wk =   0.0058309
        k(   59) = (   0.8007059   0.8007059   0.1543380), wk =   0.0058309
        k(   60) = (   1.0676079   1.0676079   0.1543380), wk =   0.0058309
        k(   61) = (   1.3345098   1.3345098   0.1543380), wk =   0.0058309
        k(   62) = (   1.6014118   1.6014118   0.1543380), wk =   0.0058309
        k(   63) = (   1.8683138   1.8683138   0.1543380), wk =   0.0058309
        k(   64) = (   0.5338039   0.2669020   0.2315070), wk =   0.0058309
        k(   65) = (   0.8007059   0.5338039   0.2315070), wk =   0.0058309
        k(   66) = (   1.0676079   0.8007059   0.2315070), wk =   0.0058309
        k(   67) = (   1.3345099   1.0676079   0.2315070), wk =   0.0058309
        k(   68) = (   1.6014118   1.3345098   0.2315070), wk =   0.0058309
        k(   69) = (   1.8683138   1.6014118   0.2315070), wk =   0.0058309
        k(   70) = (   2.1352158   1.8683138   0.2315070), wk =   0.0058309
        k(   71) = (   0.8007059   0.2669020   0.3086760), wk =   0.0058309
        k(   72) = (   1.0676079   0.5338039   0.3086760), wk =   0.0058309
        k(   73) = (   1.3345099   0.8007059   0.3086760), wk =   0.0058309
        k(   74) = (   1.6014118   1.0676079   0.3086760), wk =   0.0058309
        k(   75) = (   1.8683138   1.3345098   0.3086760), wk =   0.0058309
        k(   76) = (   2.1352158   1.6014118   0.3086760), wk =   0.0058309
        k(   77) = (   2.4021177   1.8683138   0.3086760), wk =   0.0058309
        k(   78) = (   1.0676079   0.2669020   0.3858450), wk =   0.0058309
        k(   79) = (   1.3345098   0.5338039   0.3858450), wk =   0.0058309
        k(   80) = (   1.6014118   0.8007059   0.3858450), wk =   0.0058309
        k(   81) = (   1.8683138   1.0676079   0.3858450), wk =   0.0058309
        k(   82) = (   2.1352158   1.3345098   0.3858450), wk =   0.0058309
        k(   83) = (   2.4021177   1.6014118   0.3858450), wk =   0.0058309
        k(   84) = (   2.6690197   1.8683138   0.3858450), wk =   0.0058309
        k(   85) = (   1.3345098   0.2669020   0.4630140), wk =   0.0058309
        k(   86) = (   1.6014118   0.5338039   0.4630140), wk =   0.0058309
        k(   87) = (   1.8683138   0.8007059   0.4630140), wk =   0.0058309
        k(   88) = (   2.1352158   1.0676079   0.4630140), wk =   0.0058309
        k(   89) = (   2.4021177   1.3345098   0.4630140), wk =   0.0058309
        k(   90) = (   2.6690197   1.6014118   0.4630140), wk =   0.0058309
        k(   91) = (   2.9359217   1.8683138   0.4630140), wk =   0.0058309
        k(   92) = (   1.6014118   0.2669020   0.5401830), wk =   0.0058309
        k(   93) = (   1.8683138   0.5338039   0.5401830), wk =   0.0058309
        k(   94) = (   2.1352158   0.8007059   0.5401830), wk =   0.0058309
        k(   95) = (   2.4021177   1.0676079   0.5401830), wk =   0.0058309
        k(   96) = (   2.6690197   1.3345098   0.5401830), wk =   0.0058309
        k(   97) = (   2.9359217   1.6014118   0.5401830), wk =   0.0058309
        k(   98) = (   3.2028237   1.8683138   0.5401830), wk =   0.0058309
        k(   99) = (  -0.0000000   0.5338039   0.1543380), wk =   0.0058309
        k(  100) = (   0.2669020   0.8007059   0.1543380), wk =   0.0058309
        k(  101) = (   0.5338039   1.0676079   0.1543380), wk =   0.0058309
        k(  102) = (   0.8007059   1.3345099   0.1543380), wk =   0.0058309
        k(  103) = (   1.0676079   1.6014118   0.1543380), wk =   0.0058309
        k(  104) = (   1.3345098   1.8683138   0.1543380), wk =   0.0058309
        k(  105) = (   1.6014118   2.1352158   0.1543380), wk =   0.0058309
        k(  106) = (   0.2669020   0.5338039   0.2315070), wk =   0.0058309
        k(  107) = (   0.5338039   0.8007059   0.2315070), wk =   0.0058309
        k(  108) = (   0.8007059   1.0676079   0.2315070), wk =   0.0058309
        k(  109) = (   1.0676079   1.3345099   0.2315070), wk =   0.0058309
        k(  110) = (   1.3345098   1.6014118   0.2315070), wk =   0.0058309
        k(  111) = (   1.6014118   1.8683138   0.2315070), wk =   0.0058309
        k(  112) = (   1.8683138   2.1352158   0.2315070), wk =   0.0058309
        k(  113) = (   0.5338039   0.5338039   0.3086760), wk =   0.0058309
        k(  114) = (   0.8007059   0.8007059   0.3086760), wk =   0.0058309
        k(  115) = (   1.0676079   1.0676079   0.3086760), wk =   0.0058309
        k(  116) = (   1.3345099   1.3345099   0.3086760), wk =   0.0058309
        k(  117) = (   1.6014118   1.6014118   0.3086760), wk =   0.0058309
        k(  118) = (   1.8683138   1.8683138   0.3086760), wk =   0.0058309
        k(  119) = (   2.1352158   2.1352158   0.3086760), wk =   0.0058309
        k(  120) = (   0.8007059   0.5338039   0.3858450), wk =   0.0058309
        k(  121) = (   1.0676079   0.8007059   0.3858450), wk =   0.0058309
        k(  122) = (   1.3345099   1.0676079   0.3858450), wk =   0.0058309
        k(  123) = (   1.6014118   1.3345099   0.3858450), wk =   0.0058309
        k(  124) = (   1.8683138   1.6014118   0.3858450), wk =   0.0058309
        k(  125) = (   2.1352158   1.8683138   0.3858450), wk =   0.0058309
        k(  126) = (   2.4021177   2.1352158   0.3858450), wk =   0.0058309
        k(  127) = (   1.0676079   0.5338039   0.4630140), wk =   0.0058309
        k(  128) = (   1.3345098   0.8007059   0.4630140), wk =   0.0058309
        k(  129) = (   1.6014118   1.0676079   0.4630140), wk =   0.0058309
        k(  130) = (   1.8683138   1.3345099   0.4630140), wk =   0.0058309
        k(  131) = (   2.1352158   1.6014118   0.4630140), wk =   0.0058309
        k(  132) = (   2.4021177   1.8683138   0.4630140), wk =   0.0058309
        k(  133) = (   2.6690197   2.1352158   0.4630140), wk =   0.0058309
        k(  134) = (   1.3345098   0.5338039   0.5401830), wk =   0.0058309
        k(  135) = (   1.6014118   0.8007059   0.5401830), wk =   0.0058309
        k(  136) = (   1.8683138   1.0676079   0.5401830), wk =   0.0058309
        k(  137) = (   2.1352158   1.3345099   0.5401830), wk =   0.0058309
        k(  138) = (   2.4021177   1.6014118   0.5401830), wk =   0.0058309
        k(  139) = (   2.6690197   1.8683138   0.5401830), wk =   0.0058309
        k(  140) = (   2.9359217   2.1352158   0.5401830), wk =   0.0058309
        k(  141) = (   1.6014118   0.5338039   0.6173520), wk =   0.0058309
        k(  142) = (   1.8683138   0.8007059   0.6173520), wk =   0.0058309
        k(  143) = (   2.1352158   1.0676079   0.6173520), wk =   0.0058309
        k(  144) = (   2.4021177   1.3345099   0.6173520), wk =   0.0058309
        k(  145) = (   2.6690197   1.6014118   0.6173520), wk =   0.0058309
        k(  146) = (   2.9359217   1.8683138   0.6173520), wk =   0.0058309
        k(  147) = (   3.2028237   2.1352158   0.6173520), wk =   0.0058309
        k(  148) = (  -0.0000000   0.8007059   0.2315070), wk =   0.0058309
        k(  149) = (   0.2669020   1.0676079   0.2315070), wk =   0.0058309
        k(  150) = (   0.5338039   1.3345099   0.2315070), wk =   0.0058309
        k(  151) = (   0.8007059   1.6014118   0.2315070), wk =   0.0058309
        k(  152) = (   1.0676079   1.8683138   0.2315070), wk =   0.0058309
        k(  153) = (   1.3345098   2.1352158   0.2315070), wk =   0.0058309
        k(  154) = (   1.6014118   2.4021177   0.2315070), wk =   0.0058309
        k(  155) = (   0.2669020   0.8007059   0.3086760), wk =   0.0058309
        k(  156) = (   0.5338039   1.0676079   0.3086760), wk =   0.0058309
        k(  157) = (   0.8007059   1.3345099   0.3086760), wk =   0.0058309
        k(  158) = (   1.0676079   1.6014118   0.3086760), wk =   0.0058309
        k(  159) = (   1.3345098   1.8683138   0.3086760), wk =   0.0058309
        k(  160) = (   1.6014118   2.1352158   0.3086760), wk =   0.0058309
        k(  161) = (   1.8683138   2.4021177   0.3086760), wk =   0.0058309
        k(  162) = (   0.5338039   0.8007059   0.3858450), wk =   0.0058309
        k(  163) = (   0.8007059   1.0676079   0.3858450), wk =   0.0058309
        k(  164) = (   1.0676079   1.3345099   0.3858450), wk =   0.0058309
        k(  165) = (   1.3345099   1.6014118   0.3858450), wk =   0.0058309
        k(  166) = (   1.6014118   1.8683138   0.3858450), wk =   0.0058309
        k(  167) = (   1.8683138   2.1352158   0.3858450), wk =   0.0058309
        k(  168) = (   2.1352158   2.4021177   0.3858450), wk =   0.0058309
        k(  169) = (   0.8007059   0.8007059   0.4630140), wk =   0.0058309
        k(  170) = (   1.0676079   1.0676079   0.4630140), wk =   0.0058309
        k(  171) = (   1.3345099   1.3345099   0.4630140), wk =   0.0058309
        k(  172) = (   1.6014118   1.6014118   0.4630140), wk =   0.0058309
        k(  173) = (   1.8683138   1.8683138   0.4630140), wk =   0.0058309
        k(  174) = (   2.1352158   2.1352158   0.4630140), wk =   0.0058309
        k(  175) = (   2.4021177   2.4021177   0.4630140), wk =   0.0058309
        k(  176) = (   1.0676079   0.8007059   0.5401830), wk =   0.0058309
        k(  177) = (   1.3345098   1.0676079   0.5401830), wk =   0.0058309
        k(  178) = (   1.6014118   1.3345099   0.5401830), wk =   0.0058309
        k(  179) = (   1.8683138   1.6014118   0.5401830), wk =   0.0058309
        k(  180) = (   2.1352158   1.8683138   0.5401830), wk =   0.0058309
        k(  181) = (   2.4021177   2.1352158   0.5401830), wk =   0.0058309
        k(  182) = (   2.6690197   2.4021177   0.5401830), wk =   0.0058309
        k(  183) = (   1.3345098   0.8007059   0.6173520), wk =   0.0058309
        k(  184) = (   1.6014118   1.0676079   0.6173520), wk =   0.0058309
        k(  185) = (   1.8683138   1.3345099   0.6173520), wk =   0.0058309
        k(  186) = (   2.1352158   1.6014118   0.6173520), wk =   0.0058309
        k(  187) = (   2.4021177   1.8683138   0.6173520), wk =   0.0058309
        k(  188) = (   2.6690197   2.1352158   0.6173520), wk =   0.0058309
        k(  189) = (   2.9359217   2.4021177   0.6173520), wk =   0.0058309
        k(  190) = (   1.6014118   0.8007059   0.6945210), wk =   0.0058309
        k(  191) = (   1.8683138   1.0676079   0.6945210), wk =   0.0058309
        k(  192) = (   2.1352158   1.3345099   0.6945210), wk =   0.0058309
        k(  193) = (   2.4021177   1.6014118   0.6945210), wk =   0.0058309
        k(  194) = (   2.6690197   1.8683138   0.6945210), wk =   0.0058309
        k(  195) = (   2.9359217   2.1352158   0.6945210), wk =   0.0058309
        k(  196) = (   3.2028237   2.4021177   0.6945210), wk =   0.0058309
        k(  197) = (  -0.0000000   1.0676079   0.3086760), wk =   0.0058309
        k(  198) = (   0.2669020   1.3345098   0.3086760), wk =   0.0058309
        k(  199) = (   0.5338039   1.6014118   0.3086760), wk =   0.0058309
        k(  200) = (   0.8007059   1.8683138   0.3086760), wk =   0.0058309
        k(  201) = (   1.0676079   2.1352158   0.3086760), wk =   0.0058309
        k(  202) = (   1.3345098   2.4021177   0.3086760), wk =   0.0058309
        k(  203) = (   1.6014118   2.6690197   0.3086760), wk =   0.0058309
        k(  204) = (   0.2669020   1.0676079   0.3858450), wk =   0.0058309
        k(  205) = (   0.5338039   1.3345098   0.3858450), wk =   0.0058309
        k(  206) = (   0.8007059   1.6014118   0.3858450), wk =   0.0058309
        k(  207) = (   1.0676079   1.8683138   0.3858450), wk =   0.0058309
        k(  208) = (   1.3345098   2.1352158   0.3858450), wk =   0.0058309
        k(  209) = (   1.6014118   2.4021177   0.3858450), wk =   0.0058309
        k(  210) = (   1.8683138   2.6690197   0.3858450), wk =   0.0058309
        k(  211) = (   0.5338039   1.0676079   0.4630140), wk =   0.0058309
        k(  212) = (   0.8007059   1.3345098   0.4630140), wk =   0.0058309
        k(  213) = (   1.0676079   1.6014118   0.4630140), wk =   0.0058309
        k(  214) = (   1.3345099   1.8683138   0.4630140), wk =   0.0058309
        k(  215) = (   1.6014118   2.1352158   0.4630140), wk =   0.0058309
        k(  216) = (   1.8683138   2.4021177   0.4630140), wk =   0.0058309
        k(  217) = (   2.1352158   2.6690197   0.4630140), wk =   0.0058309
        k(  218) = (   0.8007059   1.0676079   0.5401830), wk =   0.0058309
        k(  219) = (   1.0676079   1.3345098   0.5401830), wk =   0.0058309
        k(  220) = (   1.3345099   1.6014118   0.5401830), wk =   0.0058309
        k(  221) = (   1.6014118   1.8683138   0.5401830), wk =   0.0058309
        k(  222) = (   1.8683138   2.1352158   0.5401830), wk =   0.0058309
        k(  223) = (   2.1352158   2.4021177   0.5401830), wk =   0.0058309
        k(  224) = (   2.4021177   2.6690197   0.5401830), wk =   0.0058309
        k(  225) = (   1.0676079   1.0676079   0.6173520), wk =   0.0058309
        k(  226) = (   1.3345098   1.3345098   0.6173520), wk =   0.0058309
        k(  227) = (   1.6014118   1.6014118   0.6173520), wk =   0.0058309
        k(  228) = (   1.8683138   1.8683138   0.6173520), wk =   0.0058309
        k(  229) = (   2.1352158   2.1352158   0.6173520), wk =   0.0058309
        k(  230) = (   2.4021177   2.4021177   0.6173520), wk =   0.0058309
        k(  231) = (   2.6690197   2.6690197   0.6173520), wk =   0.0058309
        k(  232) = (   1.3345098   1.0676079   0.6945210), wk =   0.0058309
        k(  233) = (   1.6014118   1.3345098   0.6945210), wk =   0.0058309
        k(  234) = (   1.8683138   1.6014118   0.6945210), wk =   0.0058309
        k(  235) = (   2.1352158   1.8683138   0.6945210), wk =   0.0058309
        k(  236) = (   2.4021177   2.1352158   0.6945210), wk =   0.0058309
        k(  237) = (   2.6690197   2.4021177   0.6945210), wk =   0.0058309
        k(  238) = (   2.9359217   2.6690197   0.6945210), wk =   0.0058309
        k(  239) = (   1.6014118   1.0676079   0.7716900), wk =   0.0058309
        k(  240) = (   1.8683138   1.3345098   0.7716900), wk =   0.0058309
        k(  241) = (   2.1352158   1.6014118   0.7716900), wk =   0.0058309
        k(  242) = (   2.4021177   1.8683138   0.7716900), wk =   0.0058309
        k(  243) = (   2.6690197   2.1352158   0.7716900), wk =   0.0058309
        k(  244) = (   2.9359217   2.4021177   0.7716900), wk =   0.0058309
        k(  245) = (   3.2028237   2.6690197   0.7716900), wk =   0.0058309
        k(  246) = (  -0.0000000   1.3345098   0.3858450), wk =   0.0058309
        k(  247) = (   0.2669020   1.6014118   0.3858450), wk =   0.0058309
        k(  248) = (   0.5338039   1.8683138   0.3858450), wk =   0.0058309
        k(  249) = (   0.8007059   2.1352158   0.3858450), wk =   0.0058309
        k(  250) = (   1.0676079   2.4021177   0.3858450), wk =   0.0058309
        k(  251) = (   1.3345098   2.6690197   0.3858450), wk =   0.0058309
        k(  252) = (   1.6014118   2.9359217   0.3858450), wk =   0.0058309
        k(  253) = (   0.2669020   1.3345098   0.4630140), wk =   0.0058309
        k(  254) = (   0.5338039   1.6014118   0.4630140), wk =   0.0058309
        k(  255) = (   0.8007059   1.8683138   0.4630140), wk =   0.0058309
        k(  256) = (   1.0676079   2.1352158   0.4630140), wk =   0.0058309
        k(  257) = (   1.3345098   2.4021177   0.4630140), wk =   0.0058309
        k(  258) = (   1.6014118   2.6690197   0.4630140), wk =   0.0058309
        k(  259) = (   1.8683138   2.9359217   0.4630140), wk =   0.0058309
        k(  260) = (   0.5338039   1.3345098   0.5401830), wk =   0.0058309
        k(  261) = (   0.8007059   1.6014118   0.5401830), wk =   0.0058309
        k(  262) = (   1.0676079   1.8683138   0.5401830), wk =   0.0058309
        k(  263) = (   1.3345099   2.1352158   0.5401830), wk =   0.0058309
        k(  264) = (   1.6014118   2.4021177   0.5401830), wk =   0.0058309
        k(  265) = (   1.8683138   2.6690197   0.5401830), wk =   0.0058309
        k(  266) = (   2.1352158   2.9359217   0.5401830), wk =   0.0058309
        k(  267) = (   0.8007059   1.3345098   0.6173520), wk =   0.0058309
        k(  268) = (   1.0676079   1.6014118   0.6173520), wk =   0.0058309
        k(  269) = (   1.3345099   1.8683138   0.6173520), wk =   0.0058309
        k(  270) = (   1.6014118   2.1352158   0.6173520), wk =   0.0058309
        k(  271) = (   1.8683138   2.4021177   0.6173520), wk =   0.0058309
        k(  272) = (   2.1352158   2.6690197   0.6173520), wk =   0.0058309
        k(  273) = (   2.4021177   2.9359217   0.6173520), wk =   0.0058309
        k(  274) = (   1.0676079   1.3345098   0.6945210), wk =   0.0058309
        k(  275) = (   1.3345098   1.6014118   0.6945210), wk =   0.0058309
        k(  276) = (   1.6014118   1.8683138   0.6945210), wk =   0.0058309
        k(  277) = (   1.8683138   2.1352158   0.6945210), wk =   0.0058309
        k(  278) = (   2.1352158   2.4021177   0.6945210), wk =   0.0058309
        k(  279) = (   2.4021177   2.6690197   0.6945210), wk =   0.0058309
        k(  280) = (   2.6690197   2.9359217   0.6945210), wk =   0.0058309
        k(  281) = (   1.3345098   1.3345098   0.7716900), wk =   0.0058309
        k(  282) = (   1.6014118   1.6014118   0.7716900), wk =   0.0058309
        k(  283) = (   1.8683138   1.8683138   0.7716900), wk =   0.0058309
        k(  284) = (   2.1352158   2.1352158   0.7716900), wk =   0.0058309
        k(  285) = (   2.4021177   2.4021177   0.7716900), wk =   0.0058309
        k(  286) = (   2.6690197   2.6690197   0.7716900), wk =   0.0058309
        k(  287) = (   2.9359217   2.9359217   0.7716900), wk =   0.0058309
        k(  288) = (   1.6014118   1.3345098   0.8488590), wk =   0.0058309
        k(  289) = (   1.8683138   1.6014118   0.8488590), wk =   0.0058309
        k(  290) = (   2.1352158   1.8683138   0.8488590), wk =   0.0058309
        k(  291) = (   2.4021177   2.1352158   0.8488590), wk =   0.0058309
        k(  292) = (   2.6690197   2.4021177   0.8488590), wk =   0.0058309
        k(  293) = (   2.9359217   2.6690197   0.8488590), wk =   0.0058309
        k(  294) = (   3.2028237   2.9359217   0.8488590), wk =   0.0058309
        k(  295) = (  -0.0000000   1.6014118   0.4630140), wk =   0.0058309
        k(  296) = (   0.2669020   1.8683138   0.4630140), wk =   0.0058309
        k(  297) = (   0.5338039   2.1352158   0.4630140), wk =   0.0058309
        k(  298) = (   0.8007059   2.4021177   0.4630140), wk =   0.0058309
        k(  299) = (   1.0676079   2.6690197   0.4630140), wk =   0.0058309
        k(  300) = (   1.3345098   2.9359217   0.4630140), wk =   0.0058309
        k(  301) = (   1.6014118   3.2028237   0.4630140), wk =   0.0058309
        k(  302) = (   0.2669020   1.6014118   0.5401830), wk =   0.0058309
        k(  303) = (   0.5338039   1.8683138   0.5401830), wk =   0.0058309
        k(  304) = (   0.8007059   2.1352158   0.5401830), wk =   0.0058309
        k(  305) = (   1.0676079   2.4021177   0.5401830), wk =   0.0058309
        k(  306) = (   1.3345098   2.6690197   0.5401830), wk =   0.0058309
        k(  307) = (   1.6014118   2.9359217   0.5401830), wk =   0.0058309
        k(  308) = (   1.8683138   3.2028237   0.5401830), wk =   0.0058309
        k(  309) = (   0.5338039   1.6014118   0.6173520), wk =   0.0058309
        k(  310) = (   0.8007059   1.8683138   0.6173520), wk =   0.0058309
        k(  311) = (   1.0676079   2.1352158   0.6173520), wk =   0.0058309
        k(  312) = (   1.3345099   2.4021177   0.6173520), wk =   0.0058309
        k(  313) = (   1.6014118   2.6690197   0.6173520), wk =   0.0058309
        k(  314) = (   1.8683138   2.9359217   0.6173520), wk =   0.0058309
        k(  315) = (   2.1352158   3.2028237   0.6173520), wk =   0.0058309
        k(  316) = (   0.8007059   1.6014118   0.6945210), wk =   0.0058309
        k(  317) = (   1.0676079   1.8683138   0.6945210), wk =   0.0058309
        k(  318) = (   1.3345099   2.1352158   0.6945210), wk =   0.0058309
        k(  319) = (   1.6014118   2.4021177   0.6945210), wk =   0.0058309
        k(  320) = (   1.8683138   2.6690197   0.6945210), wk =   0.0058309
        k(  321) = (   2.1352158   2.9359217   0.6945210), wk =   0.0058309
        k(  322) = (   2.4021177   3.2028237   0.6945210), wk =   0.0058309
        k(  323) = (   1.0676079   1.6014118   0.7716900), wk =   0.0058309
        k(  324) = (   1.3345098   1.8683138   0.7716900), wk =   0.0058309
        k(  325) = (   1.6014118   2.1352158   0.7716900), wk =   0.0058309
        k(  326) = (   1.8683138   2.4021177   0.7716900), wk =   0.0058309
        k(  327) = (   2.1352158   2.6690197   0.7716900), wk =   0.0058309
        k(  328) = (   2.4021177   2.9359217   0.7716900), wk =   0.0058309
        k(  329) = (   2.6690197   3.2028237   0.7716900), wk =   0.0058309
        k(  330) = (   1.3345098   1.6014118   0.8488590), wk =   0.0058309
        k(  331) = (   1.6014118   1.8683138   0.8488590), wk =   0.0058309
        k(  332) = (   1.8683138   2.1352158   0.8488590), wk =   0.0058309
        k(  333) = (   2.1352158   2.4021177   0.8488590), wk =   0.0058309
        k(  334) = (   2.4021177   2.6690197   0.8488590), wk =   0.0058309
        k(  335) = (   2.6690197   2.9359217   0.8488590), wk =   0.0058309
        k(  336) = (   2.9359217   3.2028237   0.8488590), wk =   0.0058309
        k(  337) = (   1.6014118   1.6014118   0.9260280), wk =   0.0058309
        k(  338) = (   1.8683138   1.8683138   0.9260280), wk =   0.0058309
        k(  339) = (   2.1352158   2.1352158   0.9260280), wk =   0.0058309
        k(  340) = (   2.4021177   2.4021177   0.9260280), wk =   0.0058309
        k(  341) = (   2.6690197   2.6690197   0.9260280), wk =   0.0058309
        k(  342) = (   2.9359217   2.9359217   0.9260280), wk =   0.0058309
        k(  343) = (   3.2028237   3.2028237   0.9260280), wk =   0.0058309

                       cryst. coord.
        k(    1) = (   0.0000000   0.0000000   0.0000000), wk =   0.0058309
        k(    2) = (   0.0000000  -0.0000000   0.1428571), wk =   0.0058309
        k(    3) = (   0.0000000  -0.0000000   0.2857143), wk =   0.0058309
        k(    4) = (  -0.0000000  -0.0000000   0.4285714), wk =   0.0058309
        k(    5) = (  -0.0000000   0.0000000   0.5714286), wk =   0.0058309
        k(    6) = (   0.0000000  -0.0000000   0.7142857), wk =   0.0058309
        k(    7) = (  -0.0000000  -0.0000000   0.8571429), wk =   0.0058309
        k(    8) = (  -0.0000000   0.1428571   0.0000000), wk =   0.0058309
        k(    9) = (  -0.0000000   0.1428571   0.1428571), wk =   0.0058309
        k(   10) = (   0.0000000   0.1428571   0.2857143), wk =   0.0058309
        k(   11) = (   0.0000000   0.1428571   0.4285714), wk =   0.0058309
        k(   12) = (  -0.0000000   0.1428571   0.5714286), wk =   0.0058309
        k(   13) = (  -0.0000000   0.1428571   0.7142857), wk =   0.0058309
        k(   14) = (   0.0000000   0.1428571   0.8571429), wk =   0.0058309
        k(   15) = (  -0.0000000   0.2857143   0.0000000), wk =   0.0058309
        k(   16) = (  -0.0000000   0.2857143   0.1428571), wk =   0.0058309
        k(   17) = (  -0.0000000   0.2857143   0.2857143), wk =   0.0058309
        k(   18) = (  -0.0000000   0.2857143   0.4285714), wk =   0.0058309
        k(   19) = (  -0.0000000   0.2857143   0.5714286), wk =   0.0058309
        k(   20) = (  -0.0000000   0.2857143   0.7142857), wk =   0.0058309
        k(   21) = (   0.0000000   0.2857143   0.8571429), wk =   0.0058309
        k(   22) = (  -0.0000000   0.4285714   0.0000000), wk =   0.0058309
        k(   23) = (  -0.0000000   0.4285714   0.1428571), wk =   0.0058309
        k(   24) = (   0.0000000   0.4285714   0.2857143), wk =   0.0058309
        k(   25) = (  -0.0000000   0.4285714   0.4285714), wk =   0.0058309
        k(   26) = (  -0.0000000   0.4285714   0.5714286), wk =   0.0058309
        k(   27) = (  -0.0000000   0.4285714   0.7142857), wk =   0.0058309
        k(   28) = (  -0.0000000   0.4285714   0.8571429), wk =   0.0058309
        k(   29) = (  -0.0000000   0.5714286   0.0000000), wk =   0.0058309
        k(   30) = (  -0.0000000   0.5714286   0.1428571), wk =   0.0058309
        k(   31) = (   0.0000000   0.5714286   0.2857143), wk =   0.0058309
        k(   32) = (  -0.0000000   0.5714286   0.4285714), wk =   0.0058309
        k(   33) = (  -0.0000000   0.5714286   0.5714286), wk =   0.0058309
        k(   34) = (  -0.0000000   0.5714286   0.7142857), wk =   0.0058309
        k(   35) = (  -0.0000000   0.5714286   0.8571429), wk =   0.0058309
        k(   36) = (  -0.0000000   0.7142857   0.0000000), wk =   0.0058309
        k(   37) = (  -0.0000000   0.7142857   0.1428571), wk =   0.0058309
        k(   38) = (   0.0000000   0.7142857   0.2857143), wk =   0.0058309
        k(   39) = (   0.0000000   0.7142857   0.4285714), wk =   0.0058309
        k(   40) = (  -0.0000000   0.7142857   0.5714286), wk =   0.0058309
        k(   41) = (  -0.0000000   0.7142857   0.7142857), wk =   0.0058309
        k(   42) = (   0.0000000   0.7142857   0.8571429), wk =   0.0058309
        k(   43) = (  -0.0000000   0.8571429   0.0000000), wk =   0.0058309
        k(   44) = (  -0.0000000   0.8571429   0.1428571), wk =   0.0058309
        k(   45) = (   0.0000000   0.8571429   0.2857143), wk =   0.0058309
        k(   46) = (  -0.0000000   0.8571429   0.4285714), wk =   0.0058309
        k(   47) = (  -0.0000000   0.8571429   0.5714286), wk =   0.0058309
        k(   48) = (  -0.0000000   0.8571429   0.7142857), wk =   0.0058309
        k(   49) = (  -0.0000000   0.8571429   0.8571429), wk =   0.0058309
        k(   50) = (   0.1428571  -0.0000000   0.0000000), wk =   0.0058309
        k(   51) = (   0.1428571  -0.0000000   0.1428571), wk =   0.0058309
        k(   52) = (   0.1428571  -0.0000000   0.2857143), wk =   0.0058309
        k(   53) = (   0.1428571   0.0000000   0.4285714), wk =   0.0058309
        k(   54) = (   0.1428571  -0.0000000   0.5714286), wk =   0.0058309
        k(   55) = (   0.1428571  -0.0000000   0.7142857), wk =   0.0058309
        k(   56) = (   0.1428571   0.0000000   0.8571429), wk =   0.0058309
        k(   57) = (   0.1428571   0.1428571   0.0000000), wk =   0.0058309
        k(   58) = (   0.1428571   0.1428571   0.1428571), wk =   0.0058309
        k(   59) = (   0.1428571   0.1428571   0.2857143), wk =   0.0058309
        k(   60) = (   0.1428571   0.1428571   0.4285714), wk =   0.0058309
        k(   61) = (   0.1428571   0.1428571   0.5714286), wk =   0.0058309
        k(   62) = (   0.1428571   0.1428571   0.7142857), wk =   0.0058309
        k(   63) = (   0.1428571   0.1428571   0.8571429), wk =   0.0058309
        k(   64) = (   0.1428571   0.2857143   0.0000000), wk =   0.0058309
        k(   65) = (   0.1428571   0.2857143   0.1428571), wk =   0.0058309
        k(   66) = (   0.1428571   0.2857143   0.2857143), wk =   0.0058309
        k(   67) = (   0.1428571   0.2857143   0.4285714), wk =   0.0058309
        k(   68) = (   0.1428571   0.2857143   0.5714286), wk =   0.0058309
        k(   69) = (   0.1428571   0.2857143   0.7142857), wk =   0.0058309
        k(   70) = (   0.1428571   0.2857143   0.8571429), wk =   0.0058309
        k(   71) = (   0.1428571   0.4285714   0.0000000), wk =   0.0058309
        k(   72) = (   0.1428571   0.4285714   0.1428571), wk =   0.0058309
        k(   73) = (   0.1428571   0.4285714   0.2857143), wk =   0.0058309
        k(   74) = (   0.1428571   0.4285714   0.4285714), wk =   0.0058309
        k(   75) = (   0.1428571   0.4285714   0.5714286), wk =   0.0058309
        k(   76) = (   0.1428571   0.4285714   0.7142857), wk =   0.0058309
        k(   77) = (   0.1428571   0.4285714   0.8571429), wk =   0.0058309
        k(   78) = (   0.1428571   0.5714286   0.0000000), wk =   0.0058309
        k(   79) = (   0.1428571   0.5714286   0.1428571), wk =   0.0058309
        k(   80) = (   0.1428571   0.5714286   0.2857143), wk =   0.0058309
        k(   81) = (   0.1428571   0.5714286   0.4285714), wk =   0.0058309
        k(   82) = (   0.1428571   0.5714286   0.5714286), wk =   0.0058309
        k(   83) = (   0.1428571   0.5714286   0.7142857), wk =   0.0058309
        k(   84) = (   0.1428571   0.5714286   0.8571429), wk =   0.0058309
        k(   85) = (   0.1428571   0.7142857   0.0000000), wk =   0.0058309
        k(   86) = (   0.1428571   0.7142857   0.1428571), wk =   0.0058309
        k(   87) = (   0.1428571   0.7142857   0.2857143), wk =   0.0058309
        k(   88) = (   0.1428571   0.7142857   0.4285714), wk =   0.0058309
        k(   89) = (   0.1428571   0.7142857   0.5714286), wk =   0.0058309
        k(   90) = (   0.1428571   0.7142857   0.7142857), wk =   0.0058309
        k(   91) = (   0.1428571   0.7142857   0.8571429), wk =   0.0058309
        k(   92) = (   0.1428571   0.8571429   0.0000000), wk =   0.0058309
        k(   93) = (   0.1428571   0.8571429   0.1428571), wk =   0.0058309
        k(   94) = (   0.1428571   0.8571429   0.2857143), wk =   0.0058309
        k(   95) = (   0.1428571   0.8571429   0.4285714), wk =   0.0058309
        k(   96) = (   0.1428571   0.8571429   0.5714286), wk =   0.0058309
        k(   97) = (   0.1428571   0.8571429   0.7142857), wk =   0.0058309
        k(   98) = (   0.1428571   0.8571429   0.8571429), wk =   0.0058309
        k(   99) = (   0.2857143  -0.0000000   0.0000000), wk =   0.0058309
        k(  100) = (   0.2857143  -0.0000000   0.1428571), wk =   0.0058309
        k(  101) = (   0.2857143  -0.0000000   0.2857143), wk =   0.0058309
        k(  102) = (   0.2857143   0.0000000   0.4285714), wk =   0.0058309
        k(  103) = (   0.2857143  -0.0000000   0.5714286), wk =   0.0058309
        k(  104) = (   0.2857143  -0.0000000   0.7142857), wk =   0.0058309
        k(  105) = (   0.2857143  -0.0000000   0.8571429), wk =   0.0058309
        k(  106) = (   0.2857143   0.1428571   0.0000000), wk =   0.0058309
        k(  107) = (   0.2857143   0.1428571   0.1428571), wk =   0.0058309
        k(  108) = (   0.2857143   0.1428571   0.2857143), wk =   0.0058309
        k(  109) = (   0.2857143   0.1428571   0.4285714), wk =   0.0058309
        k(  110) = (   0.2857143   0.1428571   0.5714286), wk =   0.0058309
        k(  111) = (   0.2857143   0.1428571   0.7142857), wk =   0.0058309
        k(  112) = (   0.2857143   0.1428571   0.8571429), wk =   0.0058309
        k(  113) = (   0.2857143   0.2857143   0.0000000), wk =   0.0058309
        k(  114) = (   0.2857143   0.2857143   0.1428571), wk =   0.0058309
        k(  115) = (   0.2857143   0.2857143   0.2857143), wk =   0.0058309
        k(  116) = (   0.2857143   0.2857143   0.4285714), wk =   0.0058309
        k(  117) = (   0.2857143   0.2857143   0.5714286), wk =   0.0058309
        k(  118) = (   0.2857143   0.2857143   0.7142857), wk =   0.0058309
        k(  119) = (   0.2857143   0.2857143   0.8571429), wk =   0.0058309
        k(  120) = (   0.2857143   0.4285714   0.0000000), wk =   0.0058309
        k(  121) = (   0.2857143   0.4285714   0.1428571), wk =   0.0058309
        k(  122) = (   0.2857143   0.4285714   0.2857143), wk =   0.0058309
        k(  123) = (   0.2857143   0.4285714   0.4285714), wk =   0.0058309
        k(  124) = (   0.2857143   0.4285714   0.5714286), wk =   0.0058309
        k(  125) = (   0.2857143   0.4285714   0.7142857), wk =   0.0058309
        k(  126) = (   0.2857143   0.4285714   0.8571429), wk =   0.0058309
        k(  127) = (   0.2857143   0.5714286   0.0000000), wk =   0.0058309
        k(  128) = (   0.2857143   0.5714286   0.1428571), wk =   0.0058309
        k(  129) = (   0.2857143   0.5714286   0.2857143), wk =   0.0058309
        k(  130) = (   0.2857143   0.5714286   0.4285714), wk =   0.0058309
        k(  131) = (   0.2857143   0.5714286   0.5714286), wk =   0.0058309
        k(  132) = (   0.2857143   0.5714286   0.7142857), wk =   0.0058309
        k(  133) = (   0.2857143   0.5714286   0.8571429), wk =   0.0058309
        k(  134) = (   0.2857143   0.7142857   0.0000000), wk =   0.0058309
        k(  135) = (   0.2857143   0.7142857   0.1428571), wk =   0.0058309
        k(  136) = (   0.2857143   0.7142857   0.2857143), wk =   0.0058309
        k(  137) = (   0.2857143   0.7142857   0.4285714), wk =   0.0058309
        k(  138) = (   0.2857143   0.7142857   0.5714286), wk =   0.0058309
        k(  139) = (   0.2857143   0.7142857   0.7142857), wk =   0.0058309
        k(  140) = (   0.2857143   0.7142857   0.8571429), wk =   0.0058309
        k(  141) = (   0.2857143   0.8571429   0.0000000), wk =   0.0058309
        k(  142) = (   0.2857143   0.8571429   0.1428571), wk =   0.0058309
        k(  143) = (   0.2857143   0.8571429   0.2857143), wk =   0.0058309
        k(  144) = (   0.2857143   0.8571429   0.4285714), wk =   0.0058309
        k(  145) = (   0.2857143   0.8571429   0.5714286), wk =   0.0058309
        k(  146) = (   0.2857143   0.8571429   0.7142857), wk =   0.0058309
        k(  147) = (   0.2857143   0.8571429   0.8571429), wk =   0.0058309
        k(  148) = (   0.4285714  -0.0000000   0.0000000), wk =   0.0058309
        k(  149) = (   0.4285714  -0.0000000   0.1428571), wk =   0.0058309
        k(  150) = (   0.4285714   0.0000000   0.2857143), wk =   0.0058309
        k(  151) = (   0.4285714  -0.0000000   0.4285714), wk =   0.0058309
        k(  152) = (   0.4285714  -0.0000000   0.5714286), wk =   0.0058309
        k(  153) = (   0.4285714  -0.0000000   0.7142857), wk =   0.0058309
        k(  154) = (   0.4285714  -0.0000000   0.8571429), wk =   0.0058309
        k(  155) = (   0.4285714   0.1428571   0.0000000), wk =   0.0058309
        k(  156) = (   0.4285714   0.1428571   0.1428571), wk =   0.0058309
        k(  157) = (   0.4285714   0.1428571   0.2857143), wk =   0.0058309
        k(  158) = (   0.4285714   0.1428571   0.4285714), wk =   0.0058309
        k(  159) = (   0.4285714   0.1428571   0.5714286), wk =   0.0058309
        k(  160) = (   0.4285714   0.1428571   0.7142857), wk =   0.0058309
        k(  161) = (   0.4285714   0.1428571   0.8571429), wk =   0.0058309
        k(  162) = (   0.4285714   0.2857143   0.0000000), wk =   0.0058309
        k(  163) = (   0.4285714   0.2857143   0.1428571), wk =   0.0058309
        k(  164) = (   0.4285714   0.2857143   0.2857143), wk =   0.0058309
        k(  165) = (   0.4285714   0.2857143   0.4285714), wk =   0.0058309
        k(  166) = (   0.4285714   0.2857143   0.5714286), wk =   0.0058309
        k(  167) = (   0.4285714   0.2857143   0.7142857), wk =   0.0058309
        k(  168) = (   0.4285714   0.2857143   0.8571429), wk =   0.0058309
        k(  169) = (   0.4285714   0.4285714   0.0000000), wk =   0.0058309
        k(  170) = (   0.4285714   0.4285714   0.1428571), wk =   0.0058309
        k(  171) = (   0.4285714   0.4285714   0.2857143), wk =   0.0058309
        k(  172) = (   0.4285714   0.4285714   0.4285714), wk =   0.0058309
        k(  173) = (   0.4285714   0.4285714   0.5714286), wk =   0.0058309
        k(  174) = (   0.4285714   0.4285714   0.7142857), wk =   0.0058309
        k(  175) = (   0.4285714   0.4285714   0.8571429), wk =   0.0058309
        k(  176) = (   0.4285714   0.5714286   0.0000000), wk =   0.0058309
        k(  177) = (   0.4285714   0.5714286   0.1428571), wk =   0.0058309
        k(  178) = (   0.4285714   0.5714286   0.2857143), wk =   0.0058309
        k(  179) = (   0.4285714   0.5714286   0.4285714), wk =   0.0058309
        k(  180) = (   0.4285714   0.5714286   0.5714286), wk =   0.0058309
        k(  181) = (   0.4285714   0.5714286   0.7142857), wk =   0.0058309
        k(  182) = (   0.4285714   0.5714286   0.8571429), wk =   0.0058309
        k(  183) = (   0.4285714   0.7142857   0.0000000), wk =   0.0058309
        k(  184) = (   0.4285714   0.7142857   0.1428571), wk =   0.0058309
        k(  185) = (   0.4285714   0.7142857   0.2857143), wk =   0.0058309
        k(  186) = (   0.4285714   0.7142857   0.4285714), wk =   0.0058309
        k(  187) = (   0.4285714   0.7142857   0.5714286), wk =   0.0058309
        k(  188) = (   0.4285714   0.7142857   0.7142857), wk =   0.0058309
        k(  189) = (   0.4285714   0.7142857   0.8571429), wk =   0.0058309
        k(  190) = (   0.4285714   0.8571429   0.0000000), wk =   0.0058309
        k(  191) = (   0.4285714   0.8571429   0.1428571), wk =   0.0058309
        k(  192) = (   0.4285714   0.8571429   0.2857143), wk =   0.0058309
        k(  193) = (   0.4285714   0.8571429   0.4285714), wk =   0.0058309
        k(  194) = (   0.4285714   0.8571429   0.5714286), wk =   0.0058309
        k(  195) = (   0.4285714   0.8571429   0.7142857), wk =   0.0058309
        k(  196) = (   0.4285714   0.8571429   0.8571429), wk =   0.0058309
        k(  197) = (   0.5714286  -0.0000000   0.0000000), wk =   0.0058309
        k(  198) = (   0.5714286  -0.0000000   0.1428571), wk =   0.0058309
        k(  199) = (   0.5714286  -0.0000000   0.2857143), wk =   0.0058309
        k(  200) = (   0.5714286  -0.0000000   0.4285714), wk =   0.0058309
        k(  201) = (   0.5714286  -0.0000000   0.5714286), wk =   0.0058309
        k(  202) = (   0.5714286  -0.0000000   0.7142857), wk =   0.0058309
        k(  203) = (   0.5714286  -0.0000000   0.8571429), wk =   0.0058309
        k(  204) = (   0.5714286   0.1428571   0.0000000), wk =   0.0058309
        k(  205) = (   0.5714286   0.1428571   0.1428571), wk =   0.0058309
        k(  206) = (   0.5714286   0.1428571   0.2857143), wk =   0.0058309
        k(  207) = (   0.5714286   0.1428571   0.4285714), wk =   0.0058309
        k(  208) = (   0.5714286   0.1428571   0.5714286), wk =   0.0058309
        k(  209) = (   0.5714286   0.1428571   0.7142857), wk =   0.0058309
        k(  210) = (   0.5714286   0.1428571   0.8571429), wk =   0.0058309
        k(  211) = (   0.5714286   0.2857143   0.0000000), wk =   0.0058309
        k(  212) = (   0.5714286   0.2857143   0.1428571), wk =   0.0058309
        k(  213) = (   0.5714286   0.2857143   0.2857143), wk =   0.0058309
        k(  214) = (   0.5714286   0.2857143   0.4285714), wk =   0.0058309
        k(  215) = (   0.5714286   0.2857143   0.5714286), wk =   0.0058309
        k(  216) = (   0.5714286   0.2857143   0.7142857), wk =   0.0058309
        k(  217) = (   0.5714286   0.2857143   0.8571429), wk =   0.0058309
        k(  218) = (   0.5714286   0.4285714   0.0000000), wk =   0.0058309
        k(  219) = (   0.5714286   0.4285714   0.1428571), wk =   0.0058309
        k(  220) = (   0.5714286   0.4285714   0.2857143), wk =   0.0058309
        k(  221) = (   0.5714286   0.4285714   0.4285714), wk =   0.0058309
        k(  222) = (   0.5714286   0.4285714   0.5714286), wk =   0.0058309
        k(  223) = (   0.5714286   0.4285714   0.7142857), wk =   0.0058309
        k(  224) = (   0.5714286   0.4285714   0.8571429), wk =   0.0058309
        k(  225) = (   0.5714286   0.5714286   0.0000000), wk =   0.0058309
        k(  226) = (   0.5714286   0.5714286   0.1428571), wk =   0.0058309
        k(  227) = (   0.5714286   0.5714286   0.2857143), wk =   0.0058309
        k(  228) = (   0.5714286   0.5714286   0.4285714), wk =   0.0058309
        k(  229) = (   0.5714286   0.5714286   0.5714286), wk =   0.0058309
        k(  230) = (   0.5714286   0.5714286   0.7142857), wk =   0.0058309
        k(  231) = (   0.5714286   0.5714286   0.8571429), wk =   0.0058309
        k(  232) = (   0.5714286   0.7142857   0.0000000), wk =   0.0058309
        k(  233) = (   0.5714286   0.7142857   0.1428571), wk =   0.0058309
        k(  234) = (   0.5714286   0.7142857   0.2857143), wk =   0.0058309
        k(  235) = (   0.5714286   0.7142857   0.4285714), wk =   0.0058309
        k(  236) = (   0.5714286   0.7142857   0.5714286), wk =   0.0058309
        k(  237) = (   0.5714286   0.7142857   0.7142857), wk =   0.0058309
        k(  238) = (   0.5714286   0.7142857   0.8571429), wk =   0.0058309
        k(  239) = (   0.5714286   0.8571429   0.0000000), wk =   0.0058309
        k(  240) = (   0.5714286   0.8571429   0.1428571), wk =   0.0058309
        k(  241) = (   0.5714286   0.8571429   0.2857143), wk =   0.0058309
        k(  242) = (   0.5714286   0.8571429   0.4285714), wk =   0.0058309
        k(  243) = (   0.5714286   0.8571429   0.5714286), wk =   0.0058309
        k(  244) = (   0.5714286   0.8571429   0.7142857), wk =   0.0058309
        k(  245) = (   0.5714286   0.8571429   0.8571429), wk =   0.0058309
        k(  246) = (   0.7142857  -0.0000000   0.0000000), wk =   0.0058309
        k(  247) = (   0.7142857  -0.0000000   0.1428571), wk =   0.0058309
        k(  248) = (   0.7142857  -0.0000000   0.2857143), wk =   0.0058309
        k(  249) = (   0.7142857   0.0000000   0.4285714), wk =   0.0058309
        k(  250) = (   0.7142857  -0.0000000   0.5714286), wk =   0.0058309
        k(  251) = (   0.7142857  -0.0000000   0.7142857), wk =   0.0058309
        k(  252) = (   0.7142857   0.0000000   0.8571429), wk =   0.0058309
        k(  253) = (   0.7142857   0.1428571   0.0000000), wk =   0.0058309
        k(  254) = (   0.7142857   0.1428571   0.1428571), wk =   0.0058309
        k(  255) = (   0.7142857   0.1428571   0.2857143), wk =   0.0058309
        k(  256) = (   0.7142857   0.1428571   0.4285714), wk =   0.0058309
        k(  257) = (   0.7142857   0.1428571   0.5714286), wk =   0.0058309
        k(  258) = (   0.7142857   0.1428571   0.7142857), wk =   0.0058309
        k(  259) = (   0.7142857   0.1428571   0.8571429), wk =   0.0058309
        k(  260) = (   0.7142857   0.2857143   0.0000000), wk =   0.0058309
        k(  261) = (   0.7142857   0.2857143   0.1428571), wk =   0.0058309
        k(  262) = (   0.7142857   0.2857143   0.2857143), wk =   0.0058309
        k(  263) = (   0.7142857   0.2857143   0.4285714), wk =   0.0058309
        k(  264) = (   0.7142857   0.2857143   0.5714286), wk =   0.0058309
        k(  265) = (   0.7142857   0.2857143   0.7142857), wk =   0.0058309
        k(  266) = (   0.7142857   0.2857143   0.8571429), wk =   0.0058309
        k(  267) = (   0.7142857   0.4285714   0.0000000), wk =   0.0058309
        k(  268) = (   0.7142857   0.4285714   0.1428571), wk =   0.0058309
        k(  269) = (   0.7142857   0.4285714   0.2857143), wk =   0.0058309
        k(  270) = (   0.7142857   0.4285714   0.4285714), wk =   0.0058309
        k(  271) = (   0.7142857   0.4285714   0.5714286), wk =   0.0058309
        k(  272) = (   0.7142857   0.4285714   0.7142857), wk =   0.0058309
        k(  273) = (   0.7142857   0.4285714   0.8571429), wk =   0.0058309
        k(  274) = (   0.7142857   0.5714286   0.0000000), wk =   0.0058309
        k(  275) = (   0.7142857   0.5714286   0.1428571), wk =   0.0058309
        k(  276) = (   0.7142857   0.5714286   0.2857143), wk =   0.0058309
        k(  277) = (   0.7142857   0.5714286   0.4285714), wk =   0.0058309
        k(  278) = (   0.7142857   0.5714286   0.5714286), wk =   0.0058309
        k(  279) = (   0.7142857   0.5714286   0.7142857), wk =   0.0058309
        k(  280) = (   0.7142857   0.5714286   0.8571429), wk =   0.0058309
        k(  281) = (   0.7142857   0.7142857   0.0000000), wk =   0.0058309
        k(  282) = (   0.7142857   0.7142857   0.1428571), wk =   0.0058309
        k(  283) = (   0.7142857   0.7142857   0.2857143), wk =   0.0058309
        k(  284) = (   0.7142857   0.7142857   0.4285714), wk =   0.0058309
        k(  285) = (   0.7142857   0.7142857   0.5714286), wk =   0.0058309
        k(  286) = (   0.7142857   0.7142857   0.7142857), wk =   0.0058309
        k(  287) = (   0.7142857   0.7142857   0.8571429), wk =   0.0058309
        k(  288) = (   0.7142857   0.8571429   0.0000000), wk =   0.0058309
        k(  289) = (   0.7142857   0.8571429   0.1428571), wk =   0.0058309
        k(  290) = (   0.7142857   0.8571429   0.2857143), wk =   0.0058309
        k(  291) = (   0.7142857   0.8571429   0.4285714), wk =   0.0058309
        k(  292) = (   0.7142857   0.8571429   0.5714286), wk =   0.0058309
        k(  293) = (   0.7142857   0.8571429   0.7142857), wk =   0.0058309
        k(  294) = (   0.7142857   0.8571429   0.8571429), wk =   0.0058309
        k(  295) = (   0.8571429  -0.0000000   0.0000000), wk =   0.0058309
        k(  296) = (   0.8571429  -0.0000000   0.1428571), wk =   0.0058309
        k(  297) = (   0.8571429  -0.0000000   0.2857143), wk =   0.0058309
        k(  298) = (   0.8571429  -0.0000000   0.4285714), wk =   0.0058309
        k(  299) = (   0.8571429  -0.0000000   0.5714286), wk =   0.0058309
        k(  300) = (   0.8571429  -0.0000000   0.7142857), wk =   0.0058309
        k(  301) = (   0.8571429  -0.0000000   0.8571429), wk =   0.0058309
        k(  302) = (   0.8571429   0.1428571   0.0000000), wk =   0.0058309
        k(  303) = (   0.8571429   0.1428571   0.1428571), wk =   0.0058309
        k(  304) = (   0.8571429   0.1428571   0.2857143), wk =   0.0058309
        k(  305) = (   0.8571429   0.1428571   0.4285714), wk =   0.0058309
        k(  306) = (   0.8571429   0.1428571   0.5714286), wk =   0.0058309
        k(  307) = (   0.8571429   0.1428571   0.7142857), wk =   0.0058309
        k(  308) = (   0.8571429   0.1428571   0.8571429), wk =   0.0058309
        k(  309) = (   0.8571429   0.2857143   0.0000000), wk =   0.0058309
        k(  310) = (   0.8571429   0.2857143   0.1428571), wk =   0.0058309
        k(  311) = (   0.8571429   0.2857143   0.2857143), wk =   0.0058309
        k(  312) = (   0.8571429   0.2857143   0.4285714), wk =   0.0058309
        k(  313) = (   0.8571429   0.2857143   0.5714286), wk =   0.0058309
        k(  314) = (   0.8571429   0.2857143   0.7142857), wk =   0.0058309
        k(  315) = (   0.8571429   0.2857143   0.8571429), wk =   0.0058309
        k(  316) = (   0.8571429   0.4285714   0.0000000), wk =   0.0058309
        k(  317) = (   0.8571429   0.4285714   0.1428571), wk =   0.0058309
        k(  318) = (   0.8571429   0.4285714   0.2857143), wk =   0.0058309
        k(  319) = (   0.8571429   0.4285714   0.4285714), wk =   0.0058309
        k(  320) = (   0.8571429   0.4285714   0.5714286), wk =   0.0058309
        k(  321) = (   0.8571429   0.4285714   0.7142857), wk =   0.0058309
        k(  322) = (   0.8571429   0.4285714   0.8571429), wk =   0.0058309
        k(  323) = (   0.8571429   0.5714286   0.0000000), wk =   0.0058309
        k(  324) = (   0.8571429   0.5714286   0.1428571), wk =   0.0058309
        k(  325) = (   0.8571429   0.5714286   0.2857143), wk =   0.0058309
        k(  326) = (   0.8571429   0.5714286   0.4285714), wk =   0.0058309
        k(  327) = (   0.8571429   0.5714286   0.5714286), wk =   0.0058309
        k(  328) = (   0.8571429   0.5714286   0.7142857), wk =   0.0058309
        k(  329) = (   0.8571429   0.5714286   0.8571429), wk =   0.0058309
        k(  330) = (   0.8571429   0.7142857   0.0000000), wk =   0.0058309
        k(  331) = (   0.8571429   0.7142857   0.1428571), wk =   0.0058309
        k(  332) = (   0.8571429   0.7142857   0.2857143), wk =   0.0058309
        k(  333) = (   0.8571429   0.7142857   0.4285714), wk =   0.0058309
        k(  334) = (   0.8571429   0.7142857   0.5714286), wk =   0.0058309
        k(  335) = (   0.8571429   0.7142857   0.7142857), wk =   0.0058309
        k(  336) = (   0.8571429   0.7142857   0.8571429), wk =   0.0058309
        k(  337) = (   0.8571429   0.8571429   0.0000000), wk =   0.0058309
        k(  338) = (   0.8571429   0.8571429   0.1428571), wk =   0.0058309
        k(  339) = (   0.8571429   0.8571429   0.2857143), wk =   0.0058309
        k(  340) = (   0.8571429   0.8571429   0.4285714), wk =   0.0058309
        k(  341) = (   0.8571429   0.8571429   0.5714286), wk =   0.0058309
        k(  342) = (   0.8571429   0.8571429   0.7142857), wk =   0.0058309
        k(  343) = (   0.8571429   0.8571429   0.8571429), wk =   0.0058309

     Dense  grid:   185911 G-vectors     FFT dimensions: ( 120, 120, 120)

     Smooth grid:    35659 G-vectors     FFT dimensions: (  64,  64,  64)

     Dynamical RAM for                 wfc:       2.73 MB

     Dynamical RAM for     wfc (w. buffer):       2.73 MB

     Dynamical RAM for           str. fact:       8.51 MB

     Dynamical RAM for           local pot:       0.00 MB

     Dynamical RAM for          nlocal pot:       9.15 MB

     Dynamical RAM for                qrad:      14.84 MB

     Dynamical RAM for          rho,v,vnew:      48.06 MB

     Dynamical RAM for           G-vectors:      10.91 MB

     Dynamical RAM for          h,s,v(r/c):       0.29 MB

     Dynamical RAM for          <psi|beta>:       0.08 MB

     Dynamical RAM for                 psi:       5.46 MB

     Dynamical RAM for                hpsi:       5.46 MB

     Dynamical RAM for                spsi:       5.46 MB

     Dynamical RAM for      wfcinit/wfcrot:       9.53 MB

     Dynamical RAM for           addusdens:     101.77 MB

     Estimated static dynamical RAM per process >     171.47 MB

     Estimated max dynamical RAM per process >     273.23 MB

     Estimated total dynamical RAM >       4.27 GB

     Check: negative core charge=   -0.000001

     The potential is recalculated from file :
     /mnt/ceph/users/sbeck/QE_tmp/lco.save/charge-density


     negative rho (up, down):  1.020E-01 0.000E+00
     Starting wfcs are   69 randomized atomic wfcs

     Band Structure Calculation
     Davidson diagonalization with overlap

     Computing kpt #:     1  of    22 on this pool
     c_bands:  3 eigenvalues not converged
     total cpu time spent up to now is       16.9 secs

     Computing kpt #:     2  of    22 on this pool
     c_bands:  1 eigenvalues not converged
     total cpu time spent up to now is       28.8 secs

     Computing kpt #:     3  of    22 on this pool
     c_bands:  1 eigenvalues not converged
     total cpu time spent up to now is       40.7 secs

     Computing kpt #:     4  of    22 on this pool
     c_bands:  3 eigenvalues not converged
     total cpu time spent up to now is       52.9 secs

     Computing kpt #:     5  of    22 on this pool
     c_bands:  2 eigenvalues not converged
     total cpu time spent up to now is       65.0 secs

     Computing kpt #:     6  of    22 on this pool
     c_bands:  2 eigenvalues not converged
     total cpu time spent up to now is       77.0 secs

     Computing kpt #:     7  of    22 on this pool
     c_bands:  1 eigenvalues not converged
     total cpu time spent up to now is       88.9 secs

     Computing kpt #:     8  of    22 on this pool
     c_bands:  1 eigenvalues not converged
     total cpu time spent up to now is      101.1 secs

     Computing kpt #:     9  of    22 on this pool
     c_bands:  1 eigenvalues not converged
     total cpu time spent up to now is      113.1 secs

     Computing kpt #:    10  of    22 on this pool
     c_bands:  1 eigenvalues not converged
     total cpu time spent up to now is      125.1 secs

     Computing kpt #:    11  of    22 on this pool
     c_bands:  3 eigenvalues not converged
     total cpu time spent up to now is      137.2 secs

     Computing kpt #:    12  of    22 on this pool
     c_bands:  1 eigenvalues not converged
     total cpu time spent up to now is      149.5 secs

     Computing kpt #:    13  of    22 on this pool
     c_bands:  1 eigenvalues not converged
     total cpu time spent up to now is      161.6 secs

     Computing kpt #:    14  of    22 on this pool
     c_bands:  1 eigenvalues not converged
     total cpu time spent up to now is      173.7 secs

     Computing kpt #:    15  of    22 on this pool
     c_bands:  2 eigenvalues not converged
     total cpu time spent up to now is      186.0 secs

     Computing kpt #:    16  of    22 on this pool
     c_bands:  3 eigenvalues not converged
     total cpu time spent up to now is      198.4 secs

     Computing kpt #:    17  of    22 on this pool
     c_bands:  2 eigenvalues not converged
     total cpu time spent up to now is      210.5 secs

     Computing kpt #:    18  of    22 on this pool
     c_bands:  3 eigenvalues not converged
     total cpu time spent up to now is      222.4 secs

     Computing kpt #:    19  of    22 on this pool
     c_bands:  3 eigenvalues not converged
     total cpu time spent up to now is      234.5 secs

     Computing kpt #:    20  of    22 on this pool
     c_bands:  1 eigenvalues not converged
     total cpu time spent up to now is      247.4 secs

     Computing kpt #:    21  of    22 on this pool
     c_bands:  1 eigenvalues not converged
     total cpu time spent up to now is      260.4 secs

     Computing kpt #:    22  of    22 on this pool
     c_bands:  3 eigenvalues not converged
     total cpu time spent up to now is      270.7 secs

     ethr =  1.54E-13,  avg # of iterations =119.9

     total cpu time spent up to now is      270.8 secs

     End of band structure calculation

          k = 0.0000 0.0000 0.0000 (  4461 PWs)   bands (ev):

   -99.7143 -57.2992 -57.2992 -56.7554 -19.2672 -19.1109  -6.9195  -5.1301
    -5.0985  -4.6643  -2.6797  -2.6797  -2.6146  -2.6146  -2.1442  -1.3046
     7.3763   7.3763   7.9366   8.6898   8.8400   9.7878   9.7878   9.8155
    10.0215  10.0215  10.2813  10.2813  10.7467  10.7467  10.8376  11.2038
    11.2354  14.3096  14.9066  15.4150  15.8947  15.9464  15.9688  15.9688

     occupation numbers 
     1.0000   1.0000   1.0000   1.0000   1.0000   1.0000   1.0000   1.0000
     1.0000   1.0000   1.0000   1.0000   1.0000   1.0000   1.0000   1.0000
     1.0000   1.0000   1.0000   1.0000   1.0000   1.0000   1.0000   1.0000
     1.0000   1.0000   1.0000   1.0000   1.0000   1.0000   1.0000   1.0000
     1.0000  -0.0000  -0.0000  -0.0000  -0.0000  -0.0000  -0.0000  -0.0000

          k = 0.2669 0.2669-0.0000 (  4490 PWs)   bands (ev):

   -99.7143 -57.2992 -57.2992 -56.7554 -19.2325 -19.0963  -6.7389  -5.3102
    -5.2902  -4.9000  -2.8220  -2.5841  -2.5444  -2.4038  -1.9813  -1.4539
     6.8970   7.3442   7.8162   8.6653   8.6855   9.0037   9.6919   9.6992
     9.7025   9.8943  10.3203  10.5537  10.5678  10.6772  11.2098  11.4462
    11.9422  14.7471  15.4117  15.4816  15.9298  15.9740  15.9906  16.1119

     occupation numbers 
     1.0000   1.0000   1.0000   1.0000   1.0000   1.0000   1.0000   1.0000
     1.0000   1.0000   1.0000   1.0000   1.0000   1.0000   1.0000   1.0000
     1.0000   1.0000   1.0000   1.0000   1.0000   1.0000   1.0000   1.0000
     1.0000   1.0000   1.0000   1.0000   1.0000   1.0000   1.0000   1.0000
     1.0000  -0.0000  -0.0000  -0.0000  -0.0000  -0.0000  -0.0000  -0.0000

          k = 0.5338 0.5338-0.0000 (  4490 PWs)   bands (ev):

   -99.7143 -57.2992 -57.2992 -56.7553 -19.1554 -19.0651  -6.3257  -5.6580
    -5.4043  -5.1000  -3.1231  -2.6889  -2.4543  -2.3116  -1.8779  -1.8095
     5.9509   7.0756   7.5415   7.9652   8.3898   9.1294   9.3696   9.4883
     9.5633   9.9906  10.3465  10.6370  11.1551  11.1837  11.3144  11.8161
    13.4144  15.5164  15.5860  15.8182  15.9018  15.9110  15.9200  16.0626

     occupation numbers 
     1.0000   1.0000   1.0000   1.0000   1.0000   1.0000   1.0000   1.0000
     1.0000   1.0000   1.0000   1.0000   1.0000   1.0000   1.0000   1.0000
     1.0000   1.0000   1.0000   1.0000   1.0000   1.0000   1.0000   1.0000
     1.0000   1.0000   1.0000   1.0000   1.0000   1.0000   1.0000   1.0000
    -0.0000  -0.0000  -0.0000  -0.0000  -0.0000  -0.0000  -0.0000  -0.0000

          k = 0.8007 0.8007-0.0000 (  4460 PWs)   bands (ev):

   -99.7143 -57.2992 -57.2992 -56.7553 -19.0947 -19.0417  -6.0137  -5.9108
    -5.1389  -4.9991  -3.3485  -3.0329  -2.6151  -2.4268  -2.3125  -1.8358
     5.1988   6.8008   7.0418   8.1306   8.2165   9.1801   9.4327   9.4550
     9.6443  10.5620  10.5723  10.8198  11.3329  11.5410  11.5940  12.1262
    14.6001  15.6946  15.7757  15.8419  15.8566  15.8632  15.8681  15.9633

     occupation numbers 
     1.0000   1.0000   1.0000   1.0000   1.0000   1.0000   1.0000   1.0000
     1.0000   1.0000   1.0000   1.0000   1.0000   1.0000   1.0000   1.0000
     1.0000   1.0000   1.0000   1.0000   1.0000   1.0000   1.0000   1.0000
     1.0000   1.0000   1.0000   1.0000   1.0000   1.0000   1.0000   1.0000
    -0.0000  -0.0000  -0.0000  -0.0000  -0.0000  -0.0000  -0.0000  -0.0000

          k = 1.0676 1.0676-0.0000 (  4460 PWs)   bands (ev):

   -99.7143 -57.2992 -57.2992 -56.7553 -19.0947 -19.0417  -6.0137  -5.9108
    -5.1389  -4.9991  -3.3485  -3.0329  -2.6151  -2.4268  -2.3125  -1.8358
     5.1988   6.8008   7.0418   8.1306   8.2165   9.1801   9.4327   9.4550
     9.6443  10.5620  10.5723  10.8198  11.3329  11.5410  11.5940  12.1262
    14.6001  15.6946  15.7757  15.8419  15.8566  15.8632  15.8681  15.9633

     occupation numbers 
     1.0000   1.0000   1.0000   1.0000   1.0000   1.0000   1.0000   1.0000
     1.0000   1.0000   1.0000   1.0000   1.0000   1.0000   1.0000   1.0000
     1.0000   1.0000   1.0000   1.0000   1.0000   1.0000   1.0000   1.0000
     1.0000   1.0000   1.0000   1.0000   1.0000   1.0000   1.0000   1.0000
    -0.0000  -0.0000  -0.0000  -0.0000  -0.0000  -0.0000  -0.0000  -0.0000

          k = 1.3345 1.3345-0.0000 (  4490 PWs)   bands (ev):

   -99.7143 -57.2992 -57.2992 -56.7553 -19.1554 -19.0651  -6.3257  -5.6580
    -5.4043  -5.1000  -3.1231  -2.6889  -2.4543  -2.3116  -1.8779  -1.8095
     5.9509   7.0756   7.5415   7.9652   8.3898   9.1294   9.3696   9.4883
     9.5633   9.9906  10.3465  10.6370  11.1551  11.1837  11.3144  11.8161
    13.4144  15.5164  15.5860  15.8182  15.9018  15.9110  15.9200  16.0603

     occupation numbers 
     1.0000   1.0000   1.0000   1.0000   1.0000   1.0000   1.0000   1.0000
     1.0000   1.0000   1.0000   1.0000   1.0000   1.0000   1.0000   1.0000
     1.0000   1.0000   1.0000   1.0000   1.0000   1.0000   1.0000   1.0000
     1.0000   1.0000   1.0000   1.0000   1.0000   1.0000   1.0000   1.0000
    -0.0000  -0.0000  -0.0000  -0.0000  -0.0000  -0.0000  -0.0000  -0.0000

          k = 1.6014 1.6014-0.0000 (  4490 PWs)   bands (ev):

   -99.7143 -57.2992 -57.2992 -56.7554 -19.2325 -19.0963  -6.7389  -5.3102
    -5.2902  -4.9000  -2.8220  -2.5841  -2.5444  -2.4038  -1.9813  -1.4539
     6.8970   7.3442   7.8162   8.6653   8.6855   9.0037   9.6919   9.6992
     9.7025   9.8943  10.3203  10.5537  10.5678  10.6772  11.2098  11.4462
    11.9422  14.7471  15.4117  15.4816  15.9298  15.9740  15.9906  16.1119

     occupation numbers 
     1.0000   1.0000   1.0000   1.0000   1.0000   1.0000   1.0000   1.0000
     1.0000   1.0000   1.0000   1.0000   1.0000   1.0000   1.0000   1.0000
     1.0000   1.0000   1.0000   1.0000   1.0000   1.0000   1.0000   1.0000
     1.0000   1.0000   1.0000   1.0000   1.0000   1.0000   1.0000   1.0000
     1.0000  -0.0000  -0.0000  -0.0000  -0.0000  -0.0000  -0.0000  -0.0000

          k = 0.2669-0.0000 0.0772 (  4463 PWs)   bands (ev):

   -99.7143 -57.2992 -57.2992 -56.7554 -19.2477 -19.1055  -6.8253  -5.3537
    -5.0908  -4.7965  -2.6896  -2.6651  -2.5887  -2.4824  -2.0495  -1.3794
     7.0946   7.4166   7.8501   8.7544   8.7729   9.2749   9.6616   9.6829
     9.9050  10.2388  10.2670  10.4050  10.4208  10.7203  11.0620  11.2305
    11.6195  14.4963  15.2337  15.4474  15.9665  15.9788  15.9912  16.0977

     occupation numbers 
     1.0000   1.0000   1.0000   1.0000   1.0000   1.0000   1.0000   1.0000
     1.0000   1.0000   1.0000   1.0000   1.0000   1.0000   1.0000   1.0000
     1.0000   1.0000   1.0000   1.0000   1.0000   1.0000   1.0000   1.0000
     1.0000   1.0000   1.0000   1.0000   1.0000   1.0000   1.0000   1.0000
     1.0000  -0.0000  -0.0000  -0.0000  -0.0000  -0.0000  -0.0000  -0.0000

          k = 0.5338 0.2669 0.0772 (  4486 PWs)   bands (ev):

   -99.7143 -57.2992 -57.2992 -56.7553 -19.1902 -19.0833  -6.5106  -5.7335
    -5.1843  -5.0911  -2.8938  -2.6215  -2.5282  -2.3180  -1.8092  -1.5897
     6.3857   7.3230   7.7598   8.1585   8.5782   8.9643   9.4281   9.4838
     9.6328   9.8355  10.3322  10.3607  10.7919  11.0412  11.2786  11.5910
    12.5924  15.2165  15.5431  15.7218  15.9387  15.9690  16.0087  16.0915

     occupation numbers 
     1.0000   1.0000   1.0000   1.0000   1.0000   1.0000   1.0000   1.0000
     1.0000   1.0000   1.0000   1.0000   1.0000   1.0000   1.0000   1.0000
     1.0000   1.0000   1.0000   1.0000   1.0000   1.0000   1.0000   1.0000
     1.0000   1.0000   1.0000   1.0000   1.0000   1.0000   1.0000   1.0000
     1.0303  -0.0000  -0.0000  -0.0000  -0.0000  -0.0000  -0.0000  -0.0000

          k = 0.8007 0.5338 0.0772 (  4468 PWs)   bands (ev):

   -99.7143 -57.2992 -57.2992 -56.7553 -19.1203 -19.0574  -6.1399  -5.9332
    -5.1683  -5.1171  -3.1586  -2.8662  -2.6096  -2.4436  -1.9234  -1.7733
     5.5920   6.9833   7.2325   8.0729   8.3031   9.1195   9.3163   9.4034
     9.6828  10.2746  10.3873  10.5116  11.2391  11.3442  11.5224  11.9738
    13.8885  15.6485  15.7346  15.8245  15.8590  15.9119  15.9293  15.9990

     occupation numbers 
     1.0000   1.0000   1.0000   1.0000   1.0000   1.0000   1.0000   1.0000
     1.0000   1.0000   1.0000   1.0000   1.0000   1.0000   1.0000   1.0000
     1.0000   1.0000   1.0000   1.0000   1.0000   1.0000   1.0000   1.0000
     1.0000   1.0000   1.0000   1.0000   1.0000   1.0000   1.0000   1.0000
    -0.0000  -0.0000  -0.0000  -0.0000  -0.0000  -0.0000  -0.0000  -0.0000

          k = 1.0676 0.8007 0.0772 (  4449 PWs)   bands (ev):

   -99.7143 -57.2992 -57.2992 -56.7553 -19.0902 -19.0463  -6.0542  -5.9312
    -5.0480  -4.9616  -3.2712  -3.1069  -2.7296  -2.6704  -2.0508  -1.8169
     5.2182   6.8003   7.0495   8.1475   8.2573   9.1786   9.3036   9.3757
     9.7752  10.4820  10.6569  10.7991  11.3467  11.5461  11.5792  12.1421
    14.5920  15.7323  15.7390  15.8264  15.8420  15.8937  15.9253  15.9393

     occupation numbers 
     1.0000   1.0000   1.0000   1.0000   1.0000   1.0000   1.0000   1.0000
     1.0000   1.0000   1.0000   1.0000   1.0000   1.0000   1.0000   1.0000
     1.0000   1.0000   1.0000   1.0000   1.0000   1.0000   1.0000   1.0000
     1.0000   1.0000   1.0000   1.0000   1.0000   1.0000   1.0000   1.0000
    -0.0000  -0.0000  -0.0000  -0.0000  -0.0000  -0.0000  -0.0000  -0.0000

          k = 1.3345 1.0676 0.0772 (  4468 PWs)   bands (ev):

   -99.7143 -57.2992 -57.2992 -56.7553 -19.1203 -19.0574  -6.1399  -5.9332
    -5.1683  -5.1171  -3.1586  -2.8662  -2.6096  -2.4436  -1.9234  -1.7733
     5.5920   6.9833   7.2325   8.0729   8.3031   9.1195   9.3163   9.4034
     9.6828  10.2746  10.3873  10.5116  11.2391  11.3442  11.5224  11.9738
    13.8885  15.6485  15.7346  15.8245  15.8590  15.9119  15.9293  15.9990

     occupation numbers 
     1.0000   1.0000   1.0000   1.0000   1.0000   1.0000   1.0000   1.0000
     1.0000   1.0000   1.0000   1.0000   1.0000   1.0000   1.0000   1.0000
     1.0000   1.0000   1.0000   1.0000   1.0000   1.0000   1.0000   1.0000
     1.0000   1.0000   1.0000   1.0000   1.0000   1.0000   1.0000   1.0000
    -0.0000  -0.0000  -0.0000  -0.0000  -0.0000  -0.0000  -0.0000  -0.0000

          k = 1.6014 1.3345 0.0772 (  4486 PWs)   bands (ev):

   -99.7143 -57.2992 -57.2992 -56.7553 -19.1902 -19.0833  -6.5106  -5.7335
    -5.1843  -5.0911  -2.8938  -2.6215  -2.5282  -2.3180  -1.8092  -1.5897
     6.3857   7.3230   7.7598   8.1585   8.5782   8.9643   9.4281   9.4838
     9.6328   9.8355  10.3322  10.3607  10.7919  11.0412  11.2786  11.5910
    12.5924  15.2165  15.5431  15.7218  15.9387  15.9690  16.0087  16.0915

     occupation numbers 
     1.0000   1.0000   1.0000   1.0000   1.0000   1.0000   1.0000   1.0000
     1.0000   1.0000   1.0000   1.0000   1.0000   1.0000   1.0000   1.0000
     1.0000   1.0000   1.0000   1.0000   1.0000   1.0000   1.0000   1.0000
     1.0000   1.0000   1.0000   1.0000   1.0000   1.0000   1.0000   1.0000
     1.0303  -0.0000  -0.0000  -0.0000  -0.0000  -0.0000  -0.0000  -0.0000

          k = 1.8683 1.6014 0.0772 (  4463 PWs)   bands (ev):

   -99.7143 -57.2992 -57.2992 -56.7554 -19.2477 -19.1055  -6.8253  -5.3537
    -5.0908  -4.7965  -2.6896  -2.6651  -2.5887  -2.4824  -2.0495  -1.3794
     7.0946   7.4166   7.8501   8.7544   8.7729   9.2749   9.6616   9.6829
     9.9050  10.2388  10.2670  10.4050  10.4208  10.7203  11.0620  11.2305
    11.6195  14.4963  15.2337  15.4474  15.9665  15.9788  15.9912  16.0977

     occupation numbers 
     1.0000   1.0000   1.0000   1.0000   1.0000   1.0000   1.0000   1.0000
     1.0000   1.0000   1.0000   1.0000   1.0000   1.0000   1.0000   1.0000
     1.0000   1.0000   1.0000   1.0000   1.0000   1.0000   1.0000   1.0000
     1.0000   1.0000   1.0000   1.0000   1.0000   1.0000   1.0000   1.0000
     1.0000  -0.0000  -0.0000  -0.0000  -0.0000  -0.0000  -0.0000  -0.0000

          k = 0.5338-0.0000 0.1543 (  4491 PWs)   bands (ev):

   -99.7143 -57.2992 -57.2992 -56.7553 -19.2011 -19.0959  -6.5951  -5.7854
    -5.0665  -5.0508  -2.7283  -2.6278  -2.5337  -2.4265  -1.7872  -1.4718
     6.5430   7.5449   7.6712   8.6333   8.6597   8.7846   9.4559   9.4943
     9.6624   9.9826  10.0076  10.4166  10.5242  11.0456  11.1631  11.3274
    12.2447  15.0550  15.5071  15.6670  15.9966  16.0176  16.0502  16.0896

     occupation numbers 
     1.0000   1.0000   1.0000   1.0000   1.0000   1.0000   1.0000   1.0000
     1.0000   1.0000   1.0000   1.0000   1.0000   1.0000   1.0000   1.0000
     1.0000   1.0000   1.0000   1.0000   1.0000   1.0000   1.0000   1.0000
     1.0000   1.0000   1.0000   1.0000   1.0000   1.0000   1.0000   1.0000
     1.0000  -0.0000  -0.0000  -0.0000  -0.0000  -0.0000  -0.0000  -0.0000

          k = 0.8007 0.2669 0.1543 (  4473 PWs)   bands (ev):

   -99.7143 -57.2992 -57.2992 -56.7553 -19.1480 -19.0808  -6.3063  -6.0323
    -5.2291  -5.0709  -2.9205  -2.6925  -2.5665  -2.4252  -1.6693  -1.5712
     6.0063   7.4035   7.7077   7.7700   8.5270   9.0157   9.2432   9.3539
     9.5675   9.8327  10.0345  10.3810  10.8116  11.3137  11.4869  11.6660
    12.9382  15.6077  15.6226  15.7795  15.9514  16.0042  16.0424  16.0549

     occupation numbers 
     1.0000   1.0000   1.0000   1.0000   1.0000   1.0000   1.0000   1.0000
     1.0000   1.0000   1.0000   1.0000   1.0000   1.0000   1.0000   1.0000
     1.0000   1.0000   1.0000   1.0000   1.0000   1.0000   1.0000   1.0000
     1.0000   1.0000   1.0000   1.0000   1.0000   1.0000   1.0000   1.0000
    -0.0285  -0.0000  -0.0000  -0.0000  -0.0000  -0.0000  -0.0000  -0.0000

          k = 1.0676 0.5338 0.1543 (  4465 PWs)   bands (ev):

   -99.7143 -57.2992 -57.2992 -56.7553 -19.1107 -19.0672  -6.2451  -5.8791
    -5.2156  -4.9037  -3.0913  -2.9700  -2.7930  -2.5611  -1.7993  -1.6886
     5.6350   6.9948   7.2125   8.1432   8.3582   9.0439   9.2484   9.3638
     9.7504  10.1341  10.4713  10.5145  11.2177  11.3687  11.4981  12.0222
    13.8832  15.7059  15.7349  15.7702  15.8746  15.9211  15.9486  15.9865

     occupation numbers 
     1.0000   1.0000   1.0000   1.0000   1.0000   1.0000   1.0000   1.0000
     1.0000   1.0000   1.0000   1.0000   1.0000   1.0000   1.0000   1.0000
     1.0000   1.0000   1.0000   1.0000   1.0000   1.0000   1.0000   1.0000
     1.0000   1.0000   1.0000   1.0000   1.0000   1.0000   1.0000   1.0000
    -0.0000  -0.0000  -0.0000  -0.0000  -0.0000  -0.0000  -0.0000  -0.0000

          k = 1.3345 0.8007 0.1543 (  4465 PWs)   bands (ev):

   -99.7143 -57.2992 -57.2992 -56.7553 -19.1107 -19.0672  -6.2451  -5.8791
    -5.2156  -4.9037  -3.0913  -2.9700  -2.7930  -2.5611  -1.7993  -1.6886
     5.6350   6.9948   7.2125   8.1432   8.3582   9.0439   9.2484   9.3638
     9.7504  10.1341  10.4713  10.5145  11.2177  11.3687  11.4981  12.0222
    13.8832  15.7059  15.7349  15.7702  15.8746  15.9211  15.9486  15.9865

     occupation numbers 
     1.0000   1.0000   1.0000   1.0000   1.0000   1.0000   1.0000   1.0000
     1.0000   1.0000   1.0000   1.0000   1.0000   1.0000   1.0000   1.0000
     1.0000   1.0000   1.0000   1.0000   1.0000   1.0000   1.0000   1.0000
     1.0000   1.0000   1.0000   1.0000   1.0000   1.0000   1.0000   1.0000
    -0.0000  -0.0000  -0.0000  -0.0000  -0.0000  -0.0000  -0.0000  -0.0000

          k = 1.6014 1.0676 0.1543 (  4473 PWs)   bands (ev):

   -99.7143 -57.2992 -57.2992 -56.7553 -19.1480 -19.0808  -6.3063  -6.0323
    -5.2291  -5.0709  -2.9205  -2.6925  -2.5665  -2.4252  -1.6693  -1.5712
     6.0063   7.4035   7.7077   7.7700   8.5270   9.0157   9.2432   9.3539
     9.5675   9.8327  10.0345  10.3810  10.8116  11.3137  11.4869  11.6660
    12.9382  15.6077  15.6226  15.7795  15.9514  16.0042  16.0424  16.0549

     occupation numbers 
     1.0000   1.0000   1.0000   1.0000   1.0000   1.0000   1.0000   1.0000
[...]

     occupation numbers 
     1.0000   1.0000   1.0000   1.0000   1.0000   1.0000   1.0000   1.0000
     1.0000   1.0000   1.0000   1.0000   1.0000   1.0000   1.0000   1.0000
     1.0000   1.0000   1.0000   1.0000   1.0000   1.0000   1.0000   1.0000
     1.0000   1.0000   1.0000   1.0000   1.0000   1.0000   1.0000   1.0000
    -0.0219  -0.0000  -0.0000  -0.0000  -0.0000  -0.0000  -0.0000  -0.0000

          k = 1.3345 1.8683 0.7717 (  4486 PWs)   bands (ev):

   -99.7143 -57.2992 -57.2992 -56.7553 -19.1851 -19.1124  -6.6419  -5.6992
    -5.1955  -4.8799  -2.7341  -2.6645  -2.6251  -2.4950  -1.6793  -1.4861
     6.5732   7.5524   7.8106   8.5962   8.6226   8.9733   9.2550   9.5206
     9.6560   9.8925  10.0846  10.3341  10.5101  11.0686  11.0945  11.3282
    12.3744  14.9863  15.4496  15.7073  15.9915  16.0220  16.0256  16.0861

     occupation numbers 
     1.0000   1.0000   1.0000   1.0000   1.0000   1.0000   1.0000   1.0000
     1.0000   1.0000   1.0000   1.0000   1.0000   1.0000   1.0000   1.0000
     1.0000   1.0000   1.0000   1.0000   1.0000   1.0000   1.0000   1.0000
     1.0000   1.0000   1.0000   1.0000   1.0000   1.0000   1.0000   1.0000
     1.0005  -0.0000  -0.0000  -0.0000  -0.0000  -0.0000  -0.0000  -0.0000

          k = 1.6014 2.1352 0.7717 (  4482 PWs)   bands (ev):

   -99.7143 -57.2992 -57.2992 -56.7554 -19.2078 -19.1219  -6.7478  -5.3674
    -5.2938  -4.7027  -2.7767  -2.7300  -2.5842  -2.5644  -1.8079  -1.5042
     6.9726   7.3251   8.0727   8.6723   8.6865   9.0657   9.3258   9.6527
     9.7946  10.1258  10.2635  10.4308  10.6007  10.7342  10.7735  11.8313
    11.9360  14.4839  15.3890  15.6417  15.9131  15.9639  16.0102  16.0911

     occupation numbers 
     1.0000   1.0000   1.0000   1.0000   1.0000   1.0000   1.0000   1.0000
     1.0000   1.0000   1.0000   1.0000   1.0000   1.0000   1.0000   1.0000
     1.0000   1.0000   1.0000   1.0000   1.0000   1.0000   1.0000   1.0000
     1.0000   1.0000   1.0000   1.0000   1.0000   1.0000   1.0000   1.0000
     1.0000  -0.0000  -0.0000  -0.0000  -0.0000  -0.0000  -0.0000  -0.0000

          k = 1.8683 2.4021 0.7717 (  4486 PWs)   bands (ev):

   -99.7143 -57.2992 -57.2992 -56.7553 -19.1851 -19.1124  -6.6419  -5.6992
    -5.1955  -4.8799  -2.7341  -2.6645  -2.6251  -2.4950  -1.6793  -1.4861
     6.5732   7.5524   7.8106   8.5962   8.6226   8.9733   9.2550   9.5206
     9.6560   9.8925  10.0846  10.3341  10.5101  11.0686  11.0945  11.3282
    12.3744  14.9863  15.4496  15.7073  15.9915  16.0220  16.0256  16.0861

     occupation numbers 
     1.0000   1.0000   1.0000   1.0000   1.0000   1.0000   1.0000   1.0000
     1.0000   1.0000   1.0000   1.0000   1.0000   1.0000   1.0000   1.0000
     1.0000   1.0000   1.0000   1.0000   1.0000   1.0000   1.0000   1.0000
     1.0000   1.0000   1.0000   1.0000   1.0000   1.0000   1.0000   1.0000
     1.0005  -0.0000  -0.0000  -0.0000  -0.0000  -0.0000  -0.0000  -0.0000

          k = 2.1352 2.6690 0.7717 (  4469 PWs)   bands (ev):

   -99.7143 -57.2992 -57.2992 -56.7553 -19.1408 -19.0881  -6.3851  -5.9522
    -5.2338  -5.0187  -2.9369  -2.6795  -2.6255  -2.4980  -1.6223  -1.5418
     6.0270   7.4459   7.6619   7.8077   8.5334   9.1331   9.2158   9.2897
     9.5446   9.7184  10.0661  10.4051  10.7958  11.3082  11.4602  11.7100
    12.9578  15.6150  15.6331  15.7565  15.9529  15.9977  16.0495  16.0532

     occupation numbers 
     1.0000   1.0000   1.0000   1.0000   1.0000   1.0000   1.0000   1.0000
     1.0000   1.0000   1.0000   1.0000   1.0000   1.0000   1.0000   1.0000
     1.0000   1.0000   1.0000   1.0000   1.0000   1.0000   1.0000   1.0000
     1.0000   1.0000   1.0000   1.0000   1.0000   1.0000   1.0000   1.0000
    -0.0219  -0.0000  -0.0000  -0.0000  -0.0000  -0.0000  -0.0000  -0.0000

          k = 2.4021 2.9359 0.7717 (  4462 PWs)   bands (ev):

   -99.7143 -57.2992 -57.2992 -56.7553 -19.1165 -19.0613  -6.1891  -5.9122
    -5.1938  -5.0129  -3.1168  -2.9698  -2.6418  -2.4937  -1.8929  -1.7166
     5.6171   6.9892   7.2094   8.1089   8.3370   9.0530   9.2884   9.4474
     9.6346  10.2373  10.4136  10.5303  11.2117  11.4439  11.5266  11.9155
    13.8862  15.6798  15.7331  15.7998  15.8581  15.9222  15.9342  15.9923

     occupation numbers 
     1.0000   1.0000   1.0000   1.0000   1.0000   1.0000   1.0000   1.0000
     1.0000   1.0000   1.0000   1.0000   1.0000   1.0000   1.0000   1.0000
     1.0000   1.0000   1.0000   1.0000   1.0000   1.0000   1.0000   1.0000
     1.0000   1.0000   1.0000   1.0000   1.0000   1.0000   1.0000   1.0000
    -0.0000  -0.0000  -0.0000  -0.0000  -0.0000  -0.0000  -0.0000  -0.0000

          k = 2.6690 3.2028 0.7717 (  4462 PWs)   bands (ev):

   -99.7143 -57.2992 -57.2992 -56.7553 -19.1165 -19.0613  -6.1891  -5.9122
    -5.1938  -5.0129  -3.1168  -2.9698  -2.6418  -2.4937  -1.8929  -1.7166
     5.6171   6.9892   7.2094   8.1089   8.3370   9.0530   9.2884   9.4474
     9.6346  10.2373  10.4136  10.5303  11.2117  11.4439  11.5266  11.9155
    13.8862  15.6798  15.7331  15.7998  15.8581  15.9222  15.9342  15.9923

     occupation numbers 
     1.0000   1.0000   1.0000   1.0000   1.0000   1.0000   1.0000   1.0000
     1.0000   1.0000   1.0000   1.0000   1.0000   1.0000   1.0000   1.0000
     1.0000   1.0000   1.0000   1.0000   1.0000   1.0000   1.0000   1.0000
     1.0000   1.0000   1.0000   1.0000   1.0000   1.0000   1.0000   1.0000
    -0.0000  -0.0000  -0.0000  -0.0000  -0.0000  -0.0000  -0.0000  -0.0000

          k = 1.3345 1.6014 0.8489 (  4483 PWs)   bands (ev):

   -99.7143 -57.2992 -57.2992 -56.7553 -19.1798 -19.0940  -6.5543  -5.6903
    -5.2377  -4.9565  -2.8554  -2.7122  -2.5307  -2.5120  -1.6922  -1.5590
     6.4307   7.3302   7.8574   8.1305   8.5805   9.0202   9.3715   9.3986
     9.5824   9.9383  10.2810  10.3619  10.7515  11.0318  11.1809  11.7245
    12.6187  15.1856  15.5348  15.7356  15.9115  15.9719  16.0370  16.0951

     occupation numbers 
     1.0000   1.0000   1.0000   1.0000   1.0000   1.0000   1.0000   1.0000
     1.0000   1.0000   1.0000   1.0000   1.0000   1.0000   1.0000   1.0000
     1.0000   1.0000   1.0000   1.0000   1.0000   1.0000   1.0000   1.0000
     1.0000   1.0000   1.0000   1.0000   1.0000   1.0000   1.0000   1.0000
     1.0053  -0.0000  -0.0000  -0.0000  -0.0000  -0.0000  -0.0000  -0.0000

          k = 1.6014 1.8683 0.8489 (  4479 PWs)   bands (ev):

   -99.7143 -57.2992 -57.2992 -56.7554 -19.2344 -19.1195  -6.8177  -5.3726
    -5.1354  -4.6919  -2.7108  -2.7066  -2.5584  -2.5407  -1.9685  -1.4490
     7.1075   7.4083   7.9906   8.7690   8.8978   9.2010   9.4674   9.7487
    10.0616  10.0949  10.1403  10.4955  10.5536  10.7448  10.7470  11.2364
    11.8040  14.2768  15.3694  15.4592  15.9673  15.9817  15.9864  16.0625

     occupation numbers 
     1.0000   1.0000   1.0000   1.0000   1.0000   1.0000   1.0000   1.0000
     1.0000   1.0000   1.0000   1.0000   1.0000   1.0000   1.0000   1.0000
     1.0000   1.0000   1.0000   1.0000   1.0000   1.0000   1.0000   1.0000
     1.0000   1.0000   1.0000   1.0000   1.0000   1.0000   1.0000   1.0000
     1.0000  -0.0000  -0.0000  -0.0000  -0.0000  -0.0000  -0.0000  -0.0000

          k = 1.8683 2.1352 0.8489 (  4479 PWs)   bands (ev):

   -99.7143 -57.2992 -57.2992 -56.7554 -19.2344 -19.1195  -6.8177  -5.3726
    -5.1354  -4.6919  -2.7108  -2.7066  -2.5584  -2.5407  -1.9685  -1.4490
     7.1075   7.4083   7.9906   8.7690   8.8978   9.2010   9.4674   9.7487
    10.0616  10.0949  10.1403  10.4955  10.5536  10.7448  10.7470  11.2364
    11.8040  14.2768  15.3694  15.4592  15.9673  15.9817  15.9864  16.0625

     occupation numbers 
     1.0000   1.0000   1.0000   1.0000   1.0000   1.0000   1.0000   1.0000
     1.0000   1.0000   1.0000   1.0000   1.0000   1.0000   1.0000   1.0000
     1.0000   1.0000   1.0000   1.0000   1.0000   1.0000   1.0000   1.0000
     1.0000   1.0000   1.0000   1.0000   1.0000   1.0000   1.0000   1.0000
     1.0000  -0.0000  -0.0000  -0.0000  -0.0000  -0.0000  -0.0000  -0.0000

          k = 2.1352 2.4021 0.8489 (  4483 PWs)   bands (ev):

   -99.7143 -57.2992 -57.2992 -56.7553 -19.1798 -19.0940  -6.5543  -5.6903
    -5.2377  -4.9565  -2.8554  -2.7122  -2.5307  -2.5120  -1.6922  -1.5590
     6.4307   7.3302   7.8574   8.1305   8.5805   9.0202   9.3715   9.3986
     9.5824   9.9383  10.2810  10.3619  10.7515  11.0318  11.1809  11.7245
    12.6187  15.1856  15.5348  15.7356  15.9115  15.9719  16.0370  16.0951

     occupation numbers 
     1.0000   1.0000   1.0000   1.0000   1.0000   1.0000   1.0000   1.0000
     1.0000   1.0000   1.0000   1.0000   1.0000   1.0000   1.0000   1.0000
     1.0000   1.0000   1.0000   1.0000   1.0000   1.0000   1.0000   1.0000
     1.0000   1.0000   1.0000   1.0000   1.0000   1.0000   1.0000   1.0000
     1.0053  -0.0000  -0.0000  -0.0000  -0.0000  -0.0000  -0.0000  -0.0000

          k = 2.4021 2.6690 0.8489 (  4462 PWs)   bands (ev):

   -99.7143 -57.2992 -57.2992 -56.7553 -19.1165 -19.0613  -6.1891  -5.9122
    -5.1938  -5.0129  -3.1168  -2.9698  -2.6418  -2.4937  -1.8929  -1.7166
     5.6171   6.9892   7.2094   8.1089   8.3370   9.0530   9.2884   9.4474
     9.6346  10.2373  10.4136  10.5303  11.2117  11.4439  11.5266  11.9155
    13.8862  15.6798  15.7331  15.7998  15.8581  15.9222  15.9342  15.9923

     occupation numbers 
     1.0000   1.0000   1.0000   1.0000   1.0000   1.0000   1.0000   1.0000
     1.0000   1.0000   1.0000   1.0000   1.0000   1.0000   1.0000   1.0000
     1.0000   1.0000   1.0000   1.0000   1.0000   1.0000   1.0000   1.0000
     1.0000   1.0000   1.0000   1.0000   1.0000   1.0000   1.0000   1.0000
    -0.0000  -0.0000  -0.0000  -0.0000  -0.0000  -0.0000  -0.0000  -0.0000

          k = 2.6690 2.9359 0.8489 (  4438 PWs)   bands (ev):

   -99.7143 -57.2992 -57.2992 -56.7553 -19.0919 -19.0446  -6.0398  -5.9241
    -5.0980  -4.9565  -3.2139  -3.2130  -2.6628  -2.5626  -2.1478  -1.8208
     5.2208   6.8005   7.0344   8.1789   8.2104   9.0984   9.3808   9.4054
     9.7580  10.5137  10.6164  10.8135  11.4626  11.5628  11.5859  12.0037
    14.5951  15.7318  15.7706  15.7998  15.8405  15.8788  15.9250  15.9410

     occupation numbers 
     1.0000   1.0000   1.0000   1.0000   1.0000   1.0000   1.0000   1.0000
     1.0000   1.0000   1.0000   1.0000   1.0000   1.0000   1.0000   1.0000
     1.0000   1.0000   1.0000   1.0000   1.0000   1.0000   1.0000   1.0000
     1.0000   1.0000   1.0000   1.0000   1.0000   1.0000   1.0000   1.0000
    -0.0000  -0.0000  -0.0000  -0.0000  -0.0000  -0.0000  -0.0000  -0.0000

          k = 2.9359 3.2028 0.8489 (  4462 PWs)   bands (ev):

   -99.7143 -57.2992 -57.2992 -56.7553 -19.1165 -19.0613  -6.1891  -5.9122
    -5.1938  -5.0129  -3.1168  -2.9698  -2.6418  -2.4937  -1.8929  -1.7166
     5.6171   6.9892   7.2094   8.1089   8.3370   9.0530   9.2884   9.4474
     9.6346  10.2373  10.4136  10.5303  11.2117  11.4439  11.5266  11.9155
    13.8862  15.6798  15.7331  15.7998  15.8581  15.9222  15.9342  15.9923

     occupation numbers 
     1.0000   1.0000   1.0000   1.0000   1.0000   1.0000   1.0000   1.0000
     1.0000   1.0000   1.0000   1.0000   1.0000   1.0000   1.0000   1.0000
     1.0000   1.0000   1.0000   1.0000   1.0000   1.0000   1.0000   1.0000
     1.0000   1.0000   1.0000   1.0000   1.0000   1.0000   1.0000   1.0000
    -0.0000  -0.0000  -0.0000  -0.0000  -0.0000  -0.0000  -0.0000  -0.0000

          k = 1.6014 1.6014 0.9260 (  4488 PWs)   bands (ev):

   -99.7143 -57.2992 -57.2992 -56.7554 -19.2260 -19.1031  -6.7415  -5.3349
    -5.2913  -4.8333  -2.8096  -2.6372  -2.5551  -2.4515  -1.9234  -1.4664
     6.9207   7.3384   7.8875   8.6814   8.6902   8.9973   9.4834   9.7095
     9.8435   9.9249  10.3332  10.4870  10.6493  10.6535  10.9792  11.6428
    11.9403  14.6516  15.4580  15.4950  15.9259  15.9730  15.9964  16.1093

     occupation numbers 
     1.0000   1.0000   1.0000   1.0000   1.0000   1.0000   1.0000   1.0000
     1.0000   1.0000   1.0000   1.0000   1.0000   1.0000   1.0000   1.0000
     1.0000   1.0000   1.0000   1.0000   1.0000   1.0000   1.0000   1.0000
     1.0000   1.0000   1.0000   1.0000   1.0000   1.0000   1.0000   1.0000
     1.0000  -0.0000  -0.0000  -0.0000  -0.0000  -0.0000  -0.0000  -0.0000

          k = 1.8683 1.8683 0.9260 (  4469 PWs)   bands (ev):

   -99.7143 -57.2992 -57.2992 -56.7554 -19.2599 -19.1185  -6.9077  -5.1857
    -5.0985  -4.6055  -2.7144  -2.7144  -2.5785  -2.5785  -2.1238  -1.3613
     7.3688   7.3688   8.0139   8.7718   8.8478   9.7087   9.7087   9.8155
    10.0228  10.0228  10.3610  10.3610  10.7606  10.7606  10.8190  10.8374
    11.4825  14.0928  15.1403  15.3803  15.8721  15.9502  15.9719  15.9719

     occupation numbers 
     1.0000   1.0000   1.0000   1.0000   1.0000   1.0000   1.0000   1.0000
     1.0000   1.0000   1.0000   1.0000   1.0000   1.0000   1.0000   1.0000
     1.0000   1.0000   1.0000   1.0000   1.0000   1.0000   1.0000   1.0000
     1.0000   1.0000   1.0000   1.0000   1.0000   1.0000   1.0000   1.0000
     1.0000  -0.0000  -0.0000  -0.0000  -0.0000  -0.0000  -0.0000  -0.0000

          k = 2.1352 2.1352 0.9260 (  4488 PWs)   bands (ev):

   -99.7143 -57.2992 -57.2992 -56.7554 -19.2260 -19.1031  -6.7415  -5.3349
    -5.2913  -4.8333  -2.8096  -2.6372  -2.5551  -2.4515  -1.9234  -1.4664
     6.9207   7.3384   7.8875   8.6814   8.6902   8.9973   9.4834   9.7095
     9.8435   9.9249  10.3332  10.4870  10.6493  10.6535  10.9792  11.6428
    11.9403  14.6516  15.4580  15.4950  15.9259  15.9730  15.9964  16.1104

     occupation numbers 
     1.0000   1.0000   1.0000   1.0000   1.0000   1.0000   1.0000   1.0000
     1.0000   1.0000   1.0000   1.0000   1.0000   1.0000   1.0000   1.0000
     1.0000   1.0000   1.0000   1.0000   1.0000   1.0000   1.0000   1.0000
     1.0000   1.0000   1.0000   1.0000   1.0000   1.0000   1.0000   1.0000
     1.0000  -0.0000  -0.0000  -0.0000  -0.0000  -0.0000  -0.0000  -0.0000

          k = 2.4021 2.4021 0.9260 (  4476 PWs)   bands (ev):

   -99.7143 -57.2992 -57.2992 -56.7553 -19.1512 -19.0694  -6.3578  -5.6609
    -5.3891  -5.0284  -3.0926  -2.7622  -2.4839  -2.4386  -1.8141  -1.7344
     5.9823   7.0741   7.5209   8.0259   8.3925   9.1118   9.3394   9.4208
     9.5966  10.0771  10.2594  10.6422  11.1032  11.1821  11.3748  11.8299
    13.4107  15.5145  15.6042  15.8181  15.8564  15.9147  15.9640  16.0659

     occupation numbers 
     1.0000   1.0000   1.0000   1.0000   1.0000   1.0000   1.0000   1.0000
     1.0000   1.0000   1.0000   1.0000   1.0000   1.0000   1.0000   1.0000
     1.0000   1.0000   1.0000   1.0000   1.0000   1.0000   1.0000   1.0000
     1.0000   1.0000   1.0000   1.0000   1.0000   1.0000   1.0000   1.0000
    -0.0000  -0.0000  -0.0000  -0.0000  -0.0000  -0.0000  -0.0000  -0.0000

          k = 2.6690 2.6690 0.9260 (  4447 PWs)   bands (ev):

   -99.7143 -57.2992 -57.2992 -56.7553 -19.0939 -19.0426  -6.0217  -5.9149
    -5.1312  -4.9809  -3.3115  -3.1039  -2.6100  -2.4641  -2.2671  -1.8306
     5.2092   6.8007   7.0350   8.1546   8.2070   9.1296   9.4157   9.4402
     9.6985  10.5532  10.5773  10.8195  11.4127  11.5651  11.5842  12.0422
    14.5986  15.7096  15.7786  15.8155  15.8550  15.8592  15.8978  15.9570

     occupation numbers 
     1.0000   1.0000   1.0000   1.0000   1.0000   1.0000   1.0000   1.0000
     1.0000   1.0000   1.0000   1.0000   1.0000   1.0000   1.0000   1.0000
     1.0000   1.0000   1.0000   1.0000   1.0000   1.0000   1.0000   1.0000
     1.0000   1.0000   1.0000   1.0000   1.0000   1.0000   1.0000   1.0000
    -0.0000  -0.0000  -0.0000  -0.0000  -0.0000  -0.0000  -0.0000  -0.0000

          k = 2.9359 2.9359 0.9260 (  4447 PWs)   bands (ev):

   -99.7143 -57.2992 -57.2992 -56.7553 -19.0939 -19.0426  -6.0217  -5.9149
    -5.1312  -4.9809  -3.3115  -3.1039  -2.6100  -2.4641  -2.2671  -1.8306
     5.2092   6.8007   7.0350   8.1546   8.2070   9.1296   9.4157   9.4402
     9.6985  10.5532  10.5773  10.8195  11.4127  11.5651  11.5842  12.0422
    14.5986  15.7096  15.7786  15.8155  15.8550  15.8592  15.8978  15.9570

     occupation numbers 
     1.0000   1.0000   1.0000   1.0000   1.0000   1.0000   1.0000   1.0000
     1.0000   1.0000   1.0000   1.0000   1.0000   1.0000   1.0000   1.0000
     1.0000   1.0000   1.0000   1.0000   1.0000   1.0000   1.0000   1.0000
     1.0000   1.0000   1.0000   1.0000   1.0000   1.0000   1.0000   1.0000
    -0.0000  -0.0000  -0.0000  -0.0000  -0.0000  -0.0000  -0.0000  -0.0000

          k = 3.2028 3.2028 0.9260 (  4476 PWs)   bands (ev):

   -99.7143 -57.2992 -57.2992 -56.7553 -19.1512 -19.0694  -6.3578  -5.6609
    -5.3891  -5.0284  -3.0926  -2.7622  -2.4839  -2.4386  -1.8141  -1.7344
     5.9823   7.0741   7.5209   8.0259   8.3925   9.1118   9.3394   9.4208
     9.5966  10.0771  10.2594  10.6422  11.1032  11.1821  11.3748  11.8299
    13.4107  15.5145  15.6042  15.8181  15.8564  15.9147  15.9640  16.0656

     occupation numbers 
     1.0000   1.0000   1.0000   1.0000   1.0000   1.0000   1.0000   1.0000
     1.0000   1.0000   1.0000   1.0000   1.0000   1.0000   1.0000   1.0000
     1.0000   1.0000   1.0000   1.0000   1.0000   1.0000   1.0000   1.0000
     1.0000   1.0000   1.0000   1.0000   1.0000   1.0000   1.0000   1.0000
    -0.0000  -0.0000  -0.0000  -0.0000  -0.0000  -0.0000  -0.0000  -0.0000

     the Fermi energy is    12.7367 ev
     (compare with:    12.7367 eV, computed in scf)

     Writing all to output data dir /mnt/ceph/users/sbeck/QE_tmp/lco.save/

     init_run     :      3.49s CPU      3.92s WALL (       1 calls)
     electrons    :    264.98s CPU    266.41s WALL (       1 calls)

     Called by init_run:
     wfcinit      :      0.00s CPU      0.14s WALL (       1 calls)
     wfcinit:atom :      0.09s CPU      0.09s WALL (      22 calls)
     wfcinit:wfcr :      7.85s CPU      7.89s WALL (      22 calls)
     potinit      :      1.02s CPU      1.21s WALL (       1 calls)
     hinit0       :      2.26s CPU      2.31s WALL (       1 calls)

     Called by electrons:
     c_bands      :    264.97s CPU    266.39s WALL (       1 calls)
     v_of_rho     :      0.87s CPU      0.96s WALL (       1 calls)
     v_h          :      0.03s CPU      0.03s WALL (       1 calls)
     v_xc         :      0.85s CPU      0.93s WALL (       1 calls)
     newd         :      0.12s CPU      0.16s WALL (       1 calls)

     Called by c_bands:
     init_us_2    :      0.09s CPU      0.10s WALL (      22 calls)
     init_us_2:cp :      0.09s CPU      0.10s WALL (      22 calls)
     cegterg      :    240.52s CPU    241.63s WALL (     132 calls)

     Called by sum_band:

     Called by *egterg:
     cdiaghg      :      4.37s CPU      4.40s WALL (    2662 calls)
     cegterg:over :      6.40s CPU      6.44s WALL (    2640 calls)
     cegterg:upda :      5.72s CPU      5.75s WALL (    2640 calls)
     cegterg:last :      8.47s CPU      8.50s WALL (    1024 calls)
     h_psi        :    214.25s CPU    215.26s WALL (    2794 calls)
     s_psi        :      6.70s CPU      6.73s WALL (    2794 calls)
     g_psi        :      0.55s CPU      0.55s WALL (    2640 calls)

     Called by h_psi:
     h_psi:calbec :      5.46s CPU      5.49s WALL (    2794 calls)
     vloc_psi     :    201.49s CPU    202.44s WALL (    2794 calls)
     add_vuspsi   :      6.83s CPU      6.86s WALL (    2794 calls)

     General routines
     calbec       :      5.45s CPU      5.48s WALL (    2794 calls)
     fft          :      0.20s CPU      0.22s WALL (      13 calls)
     ffts         :      0.00s CPU      0.00s WALL (       1 calls)
     fftw         :    169.10s CPU    169.89s WALL (   88646 calls)
     interpolate  :      0.02s CPU      0.02s WALL (       1 calls)
     davcio       :      0.02s CPU      0.22s WALL (      44 calls)

     Parallel routines

     PWSCF        :   4m29.14s CPU   4m35.60s WALL


   This run was terminated on:  12:41:56   1May2022            

=------------------------------------------------------------------------------=
   JOB DONE.
=------------------------------------------------------------------------------=
