date Fri Mar 4 14:22:18 CET 2016
user: casassa
master hostname: node79
master system: Linux node79 2.6.32-5-amd64 #1 SMP Thu Mar 22 17:26:33 UTC 2012 x86_64 GNU/Linux
queue job id: 127614.frontend.cluster
queue hostname: clutwin
list of used nodes: node79 node79 node79 node79 node79 node79 node79 node79 node47 node47 node47 node47 node47 node47 node47 node47
number of allocated processors: 16
number of used processors: 16
output data in /home/delapierre/simon/WORK/MIMMO_DEB_NEW/nodebug_parallel/TEST_SET_236/nano/test_nano05.out
script used is simon_cosmic
crystal selected version is MIMMO_DEB_NEW
mpirun executable in /opt/openmpi-1.6.5/bin/
Pcrystal executable in /home/civalleri/bin/svn928_240216_pub/bin/Linux-ifort_XE_openmpi_emt64/v1.0.4/
input data in /home/delapierre/simon/WORK/MIMMO_DEB_NEW/nodebug_parallel/TEST_SET_236/nano/test_nano05.d12
creating temporary directories /data/casassa/tmp_p2369_casassa on each node
copying Pcrystal executable on each node
copying input file on each node
CRYSTAL data /home/delapierre/simon/WORK/MIMMO_DEB_NEW/nodebug_parallel/TEST_SET_236/nano/test_nano05.f9 not found or empty
TEST05 - zigzag C NANOTUBE - 6-21G, B3LYP, optimization
SLAB
77
2.47
1
6  -0.33333333333 0.33333333333 0.
SWCNT
8 0
OPTGEOM
FULLOPTG
FINALRUN
4
END
END
6  3
2 0 6  2.  0.
2 1 2  4.  0.
2 1 1  0.  0.
99 0
END
DFT
B3LYP
XLGRID
END
TOLINTEG
8 8 8 8 16
SHRINK
10 10
SCFDIR
LEVSHIFT
10 1
FMIXING
30
TOLDEE
8
MAXCYCLES
100
END

Fri Mar  4 14:22:31 CET 2016
          16 PROCESSORS WORKING

         
 *******************************************************************************
 *                                                                             *
 *                               CRYSTAL14                                     *
 *                      public : 1.0.4 - Feb 23rd, 2016                        *
 *                       HTTP://WWW.CRYSTAL.UNITO.IT                           *
 *                                                                             *
 *                              MAIN AUTHORS                                   *
 *                                                                             *
 *  R. DOVESI(1,11), V.R. SAUNDERS(2), C. ROETTI(1,11), R. ORLANDO(1,11),      *
 *  C.M. ZICOVICH-WILSON(1,3), F. PASCALE(4), B. CIVALLERI(1,11),              *
 *  K. DOLL(5), N.M. HARRISON(2,6), I. J. BUSH(7), Ph. D'ARCO(8),              *
 *  M. LLUNELL(9), M. CAUSA'(10), Y. NOEL(8)                                   *
 *                                                                             *
 *        CONTRIBUTIONS TO THE CURRENT RELEASE HAVE BEEN GIVEN BY              *
 *                                                                             *
 *  L. MASCHIO(1,11), S. CASASSA(1,11), A. ERBA(1,11), M. FERRABONE(1,11),     *
 *  M. DE LA PIERRE(1,11), M. FERRERO(1,11), V. LACIVITA(1,11),                *
 *  J. BAIMA(1,11), E. ALBANESE(1,11), M.F. PEINTINGER(12), R. BAST(13),       *
 *  M. RERAT(14), B. KIRTMAN(15), R. DEMICHELIS(1,16)                          *
 *                                                                             *
 * (1) THEORETICAL CHEMISTRY GROUP - UNIVERSITA' DI TORINO - TORINO (ITALY)    *
 *     http://www.crystal.unito.it                                             *
 * (2) COMPUTATIONAL SCIENCE & ENGINEERING DEPARTMENT - STFC DARESBURY (UK)    *
 *     http://www.stfc.ac.uk/CSE/randd/cmg/CRYSTAL/25806.aspx                  *
 * (3) UNIVERSIDAD AUTONOMA DEL ESTADO DE MORELOS - CUERNAVACA (MEXICO)        *
 * (4) UNIVERSITE' DE LORRAINE - NANCY (FRANCE)                                *
 * (5) UNIVERSITAET ULM - ULM (GERMANY); (6) IMPERIAL COLLEGE - LONDON (UK)    *
 * (7) NAG - OXFORD (UK); (8) UPMC - SORBONNE UNIVERSITES - PARIS (FRANCE)     *
 * (9) UNIVERSIDAD DE BARCELONA - BARCELONA (SPAIN)                            *
 *(10) UNIVERSITA' DI NAPOLI "FEDERICO II" - NAPOLI (ITALY)                    *
 *(11) NIS - NANOSTRUCTURED INTERFACES AND SURFACES - TORINO (ITALY)           *
 *(12) MPI FUER CHEMISCHE ENERGIEKONVERSION - MUELHEIM AN DER RUHR (GERMANY)   *
 *(13) UNIVERSITY OF STOCKHOLM - STOCKHOLM (SWEDEN)                            *
 *(14) UNIVERSITE' DE PAU ET DES PAYS DE L'ADOUR - PAU (FRANCE)                *
 *(15) UNIVERSITY OF CALIFORNIA SANTA BARBARA - SANTA BARBARA (USA)            *
 *(16) CURTIN UNIVERSITY - PERTH (AUSTRALIA)                                   *
 *                                                                             *
 ********************************************************************************
 EEEEEEEEEE STARTING  DATE 04 03 2016 TIME 14:22:33.0
 TEST05 - zigzag C NANOTUBE - 6-21G, B3LYP, optimization                         

 SLAB CALCULATION
 SYSTEM AND LATTICE                   :  HEXAGONAL   
 TWO-SIDED PLANE GROUP N. 77          :  P 6 M M         
 CORRESPONDING SPACE GROUP N. 183

 LATTICE PARAMETERS  (ANGSTROMS AND DEGREES) - CONVENTIONAL CELL
           A              B            GAMMA
        2.47000        2.47000      120.00000


 NUMBER OF IRREDUCIBLE ATOMS IN THE CONVENTIONAL CELL:    1

 INPUT COORDINATES

 ATOM AT. N.              COORDINATES
   1   6    -3.333333333300E-01  3.333333333300E-01  0.000000000000E+00

 *******************************************************************************

 << INFORMATION >>: FROM NOW ON, ALL COORDINATES REFER TO THE PRIMITIVE CELL

 *******************************************************************************

 LATTICE PARAMETERS  (ANGSTROMS AND DEGREES) - PRIMITIVE CELL
       A          B          C        ALPHA      BETA     GAMMA        VOLUME
    2.47000    2.47000  500.00000    90.00000  90.00000 120.00000      5.283534

 COORDINATES OF THE EQUIVALENT ATOMS 
 (X AND Y IN FRACTIONARY UNITS, Z IN ANGSTROMS)

 N. ATOM EQUIV AT. N.          X                  Y                  Z

   1   1   1    6 C    -3.33333333330E-01  3.33333333330E-01  0.00000000000E+00
   2   1   2    6 C     3.33333333330E-01 -3.33333333330E-01  0.00000000000E+00

 NUMBER OF SYMMETRY OPERATORS         :   12
 *******************************************************************************
 * GEOMETRY EDITING - INPUT COORDINATES ARE GIVEN IN ANGSTROM         
 *******************************************************************************

 GEOMETRY NOW FULLY CONSISTENT WITH THE GROUP

 *******************************************************************************
 *                                                                             *
 *                 CONSTRUCTION OF A NANOTUBE FROM A SLAB                      *
 *                                                                             *
 * Y. Noel, P. D'Arco, R. Demichelis, C.M. Zicovich-Wilson, R. Dovesi          *
 * On the use of symmetry in the ab initio quantum mechanical simulation of    *
 * nanotubes and related materials                                             *
 * J. Comput. Chem. 31, 855-862 (2010)                                         *
 *                                                                             *
 *******************************************************************************

 ********** SWCNT **********
 ROLL UP DIRECTION    8   0 SPECIFIED IN INPUT IS DEFINED FOR
 A GAMMA=60 DEG CELL REF. THESE INDICES ARE TRANSFORMED INTO    8   0 IN
 A GAMMA=120 DEG CELL REF.
 ***************************

 ********** SWCNT **********
 INPUT ROLL UP DIRECTION    8   0
 ***************************

 DISTINCTIVE NANOTUBE VECTORS EXPRESSED IN THE SLAB UNIT CELL BASIS A AND B
                                                   A   B
       ROLL UP DIRECTION, R                        8   0
       HELICAL DIRECTION, H                        0   1
       CYLINDER AXIS, L                            1   2

 LENGTHS IN ANGSTROM
       CYLINDER RADIUS                             3.145
       PERIOD ALONG THE CYLINDER AXIS, |L|         4.278
       THICKNESS OF THE SLAB                       0.000

 NUMBER OF ATOMS                                      32
 CHIRAL ANGLE                                      0.000 DEG

 NANOTUBE SYMMETRY
       NUMBER OF SYMMETRY OPERATORS                   64
       THE HELICAL OPERATOR:
         ORDER                                        16
         ANGLE                                 (   3/ 16)x2PI RAD => 67.500 DEG
         TRANSLATION                               1/  2 OF THE CYLINDER PERIOD
                                                   2.1391 ANGSTROM

 INFORMATION **** NEW DEFAULT **** FINALRUN 4 FOR GEOMETRY OPTIMIZATIONS
 INFORMATION **** NEW DEFAULT **** OPTGEOM OPTIMIZES BOTH ATOMIC COORDINATES AND CELL PARAMETERS
 INFORMATION **** NEW DEFAULT **** TOL. ON ENERGY TO REDEFINE REF. GEOMETRY: 10**-3
 INFORMATION **** FULLOPTG **** FULL OPTIMIZATION (ATOMS AND CELL PARAMETERS)

 IMPORTANT INFORMATION:
 THE COORDINATE SYSTEM ADOPTED IN THE OPTIMIZATION IS NOT IN
 GENERAL HOMOGENEOUS UNITS. FOR THIS REASON THE GRADIENT AND 
 HESSIAN MATRIX IN TERMS OF THIS SYSTEM ARE GIVEN WITHOUT
 UNITS. FOR MORE DETAILS SEE THE MANUAL.

 *******************************************************************************
 COMBINED CELL/ATOM OPTIMIZATION CONTROL

 INITIAL TRUST RADIUS         0.50000 MAXIMUM TRUST RADIUS               4.00000
 MAXIMUM GRADIENT COMPONENT   0.00045 MAXIMUM DISPLACEMENT COMPONENT     0.00180
 R.M.S. OF GRADIENT COMPONENT 0.00030 R.M.S. OF DISPLACEMENT COMPONENTS  0.00120
 THRESHOLD ON ENERGY CHANGE 0.100E-06 EXTRAPOLATING POLYNOMIAL ORDER           2
 MAXIMUM ALLOWED NUMBER OF STEPS  100 SORTING OF ENERGY POINTS:               NO
 ANALYTICAL  GRADIENT                 HESSIAN UPDATING                      BFGS
 STEP SIZE NUMERICAL GRADIENT 0.00100
 INITIAL HESSIAN MATRIX: SCHLEGEL MODEL 2
 *******************************************************************************


 GCALCO - MAX INDICES DIRECT LATTICE VECTOR 13998     0     0
 NO.OF VECTORS CREATED 6999 STARS 3500 RMAX 28287.87943 BOHR

 GEOMETRY FOR WAVE FUNCTION - DIMENSIONALITY OF THE SYSTEM    1
 (NON PERIODIC DIRECTION: LATTICE PARAMETER FORMALLY SET TO 500)
 *******************************************************************************
 LATTICE PARAMETERS (ANGSTROMS AND DEGREES) - BOHR = 0.5291772083 ANGSTROM
 PRIMITIVE CELL
         A              B              C           ALPHA      BETA       GAMMA 
     4.27816549   500.00000000   500.00000000    90.000000  90.000000  90.000000
 *******************************************************************************
 ATOMS IN THE ASYMMETRIC UNIT    1 - ATOMS IN THE UNIT CELL:   32
     ATOM              X/A             Y(ANGSTROM)         Z(ANGSTROM)   R(ANGS)
 *******************************************************************************
   1 T   6 C    -0.33333333333E+00  0.31449016755E+01  0.89896601184E-16   3.145
   2 F   6 C     0.33333333333E+00  0.31449016755E+01 -0.89896601184E-16   3.145
   3 F   6 C     0.16666666667E+00  0.12035017676E+01  0.29055102898E+01   3.145
   4 F   6 C    -0.16666666667E+00  0.12035017676E+01 -0.29055102898E+01   3.145
   5 F   6 C     0.16666666667E+00  0.12035017676E+01 -0.29055102898E+01   3.145
   6 F   6 C    -0.16666666667E+00  0.12035017676E+01  0.29055102898E+01   3.145
   7 F   6 C    -0.33333333333E+00 -0.22237813009E+01  0.22237813009E+01   3.145
   8 F   6 C     0.33333333333E+00 -0.22237813009E+01 -0.22237813009E+01   3.145
   9 F   6 C    -0.33333333333E+00 -0.22237813009E+01 -0.22237813009E+01   3.145
  10 F   6 C     0.33333333333E+00 -0.22237813009E+01  0.22237813009E+01   3.145
  11 F   6 C     0.16666666667E+00 -0.29055102898E+01 -0.12035017676E+01   3.145
  12 F   6 C    -0.16666666667E+00 -0.29055102898E+01  0.12035017676E+01   3.145
  13 F   6 C     0.16666666667E+00 -0.29055102898E+01  0.12035017676E+01   3.145
  14 F   6 C    -0.16666666667E+00 -0.29055102898E+01 -0.12035017676E+01   3.145
  15 F   6 C    -0.33333333333E+00 -0.48781246440E-15 -0.31449016755E+01   3.145
  16 F   6 C     0.33333333333E+00 -0.48781246440E-15  0.31449016755E+01   3.145
  17 F   6 C    -0.33333333333E+00 -0.48781246440E-15  0.31449016755E+01   3.145
  18 F   6 C     0.33333333333E+00 -0.48781246440E-15 -0.31449016755E+01   3.145
  19 F   6 C     0.16666666667E+00  0.29055102898E+01 -0.12035017676E+01   3.145
  20 F   6 C    -0.16666666667E+00  0.29055102898E+01  0.12035017676E+01   3.145
  21 F   6 C     0.16666666667E+00  0.29055102898E+01  0.12035017676E+01   3.145
  22 F   6 C    -0.16666666667E+00  0.29055102898E+01 -0.12035017676E+01   3.145
  23 F   6 C    -0.33333333333E+00  0.22237813009E+01  0.22237813009E+01   3.145
  24 F   6 C     0.33333333333E+00  0.22237813009E+01 -0.22237813009E+01   3.145
  25 F   6 C    -0.33333333333E+00  0.22237813009E+01 -0.22237813009E+01   3.145
  26 F   6 C     0.33333333333E+00  0.22237813009E+01  0.22237813009E+01   3.145
  27 F   6 C     0.16666666667E+00 -0.12035017676E+01  0.29055102898E+01   3.145
  28 F   6 C    -0.16666666667E+00 -0.12035017676E+01 -0.29055102898E+01   3.145
  29 F   6 C     0.16666666667E+00 -0.12035017676E+01 -0.29055102898E+01   3.145
  30 F   6 C    -0.16666666667E+00 -0.12035017676E+01  0.29055102898E+01   3.145
  31 F   6 C    -0.33333333333E+00 -0.31449016755E+01  0.10655215300E-14   3.145
  32 F   6 C     0.33333333333E+00 -0.31449016755E+01 -0.10655215300E-14   3.145

 T = ATOM BELONGING TO THE ASYMMETRIC UNIT

 ****   64 SYMMOPS - TRANSLATORS IN FRACTIONAL UNITS
 **** MATRICES AND TRANSLATORS IN THE CRYSTALLOGRAPHIC REFERENCE FRAME
   V INV                    ROTATION MATRICES                   TRANSLATORS
   1   1  1.00  0.00  0.00  0.00  1.00  0.00  0.00  0.00  1.00  0.00  0.00  0.00
   2   2 -1.00  0.00  0.00  0.00  1.00  0.00  0.00  0.00 -1.00  0.00  0.00  0.00
   3   3  1.00  0.00  0.00  0.00  1.00  0.00  0.00  0.00 -1.00  0.00  0.00  0.00
   4   4 -1.00  0.00  0.00  0.00  1.00  0.00  0.00  0.00  1.00  0.00  0.00  0.00
   5  61  1.00  0.00  0.00  0.00  0.38 -0.92  0.00  0.92  0.38 -0.50  0.00  0.00
   6   6 -1.00  0.00  0.00  0.00  0.38 -0.92  0.00 -0.92 -0.38 -0.50  0.00  0.00
   7   7  1.00  0.00  0.00  0.00  0.38 -0.92  0.00 -0.92 -0.38 -0.50  0.00  0.00
   8  64 -1.00  0.00  0.00  0.00  0.38 -0.92  0.00  0.92  0.38 -0.50  0.00  0.00
   9  57  1.00  0.00  0.00  0.00 -0.71 -0.71  0.00  0.71 -0.71  0.00  0.00  0.00
  10  10 -1.00  0.00  0.00  0.00 -0.71 -0.71  0.00 -0.71  0.71 -1.00  0.00  0.00
  11  11  1.00  0.00  0.00  0.00 -0.71 -0.71  0.00 -0.71  0.71  0.00  0.00  0.00
  12  60 -1.00  0.00  0.00  0.00 -0.71 -0.71  0.00  0.71 -0.71 -1.00  0.00  0.00
  13  53  1.00  0.00  0.00  0.00 -0.92  0.38  0.00 -0.38 -0.92 -0.50  0.00  0.00
  14  14 -1.00  0.00  0.00  0.00 -0.92  0.38  0.00  0.38  0.92 -0.50  0.00  0.00
  15  15  1.00  0.00  0.00  0.00 -0.92  0.38  0.00  0.38  0.92 -0.50  0.00  0.00
  16  56 -1.00  0.00  0.00  0.00 -0.92  0.38  0.00 -0.38 -0.92 -0.50  0.00  0.00
  17  49  1.00  0.00  0.00  0.00 -0.00  1.00  0.00 -1.00 -0.00  0.00  0.00  0.00
  18  18 -1.00  0.00  0.00  0.00 -0.00  1.00  0.00  1.00  0.00 -1.00  0.00  0.00
  19  19  1.00  0.00  0.00  0.00 -0.00  1.00  0.00  1.00  0.00  0.00  0.00  0.00
  20  52 -1.00  0.00  0.00  0.00 -0.00  1.00  0.00 -1.00 -0.00 -1.00  0.00  0.00
  21  45  1.00  0.00  0.00  0.00  0.92  0.38  0.00 -0.38  0.92 -0.50  0.00  0.00
  22  22 -1.00  0.00  0.00  0.00  0.92  0.38  0.00  0.38 -0.92 -0.50  0.00  0.00
  23  23  1.00  0.00  0.00  0.00  0.92  0.38  0.00  0.38 -0.92 -0.50  0.00  0.00
  24  48 -1.00  0.00  0.00  0.00  0.92  0.38  0.00 -0.38  0.92 -0.50  0.00  0.00
  25  41  1.00  0.00  0.00  0.00  0.71 -0.71  0.00  0.71  0.71  0.00  0.00  0.00
  26  26 -1.00  0.00  0.00  0.00  0.71 -0.71  0.00 -0.71 -0.71 -1.00  0.00  0.00
  27  27  1.00  0.00  0.00  0.00  0.71 -0.71  0.00 -0.71 -0.71  0.00  0.00  0.00
  28  44 -1.00  0.00  0.00  0.00  0.71 -0.71  0.00  0.71  0.71 -1.00  0.00  0.00
  29  37  1.00  0.00  0.00  0.00 -0.38 -0.92  0.00  0.92 -0.38 -0.50  0.00  0.00
  30  30 -1.00  0.00  0.00  0.00 -0.38 -0.92  0.00 -0.92  0.38 -0.50  0.00  0.00
  31  31  1.00  0.00  0.00  0.00 -0.38 -0.92  0.00 -0.92  0.38 -0.50  0.00  0.00
  32  40 -1.00  0.00  0.00  0.00 -0.38 -0.92  0.00  0.92 -0.38 -0.50  0.00  0.00
  33  33  1.00  0.00  0.00  0.00 -1.00 -0.00  0.00  0.00 -1.00  0.00  0.00  0.00
  34  34 -1.00  0.00  0.00  0.00 -1.00 -0.00  0.00 -0.00  1.00 -1.00  0.00  0.00
  35  35  1.00  0.00  0.00  0.00 -1.00 -0.00  0.00 -0.00  1.00  0.00  0.00  0.00
  36  36 -1.00  0.00  0.00  0.00 -1.00 -0.00  0.00  0.00 -1.00 -1.00  0.00  0.00
  37  29  1.00  0.00  0.00  0.00 -0.38  0.92  0.00 -0.92 -0.38 -0.50  0.00  0.00
  38  38 -1.00  0.00  0.00  0.00 -0.38  0.92  0.00  0.92  0.38 -0.50  0.00  0.00
  39  39  1.00  0.00  0.00  0.00 -0.38  0.92  0.00  0.92  0.38 -0.50  0.00  0.00
  40  32 -1.00  0.00  0.00  0.00 -0.38  0.92  0.00 -0.92 -0.38 -0.50  0.00  0.00
  41  25  1.00  0.00  0.00  0.00  0.71  0.71  0.00 -0.71  0.71 -0.00  0.00  0.00
  42  42 -1.00  0.00  0.00  0.00  0.71  0.71  0.00  0.71 -0.71 -1.00  0.00  0.00
  43  43  1.00  0.00  0.00  0.00  0.71  0.71  0.00  0.71 -0.71  0.00  0.00  0.00
  44  28 -1.00  0.00  0.00  0.00  0.71  0.71  0.00 -0.71  0.71 -1.00  0.00  0.00
  45  21  1.00  0.00  0.00  0.00  0.92 -0.38  0.00  0.38  0.92 -0.50  0.00  0.00
  46  46 -1.00  0.00  0.00  0.00  0.92 -0.38  0.00 -0.38 -0.92 -1.50  0.00  0.00
  47  47  1.00  0.00  0.00  0.00  0.92 -0.38  0.00 -0.38 -0.92 -0.50  0.00  0.00
  48  24 -1.00  0.00  0.00  0.00  0.92 -0.38  0.00  0.38  0.92 -0.50  0.00  0.00
  49  17  1.00  0.00  0.00  0.00  0.00 -1.00  0.00  1.00  0.00  0.00  0.00  0.00
  50  50 -1.00  0.00  0.00  0.00  0.00 -1.00  0.00 -1.00 -0.00 -1.00  0.00  0.00
  51  51  1.00  0.00  0.00  0.00  0.00 -1.00  0.00 -1.00 -0.00  0.00  0.00  0.00
  52  20 -1.00  0.00  0.00  0.00  0.00 -1.00  0.00  1.00  0.00 -1.00  0.00  0.00
  53  13  1.00  0.00  0.00  0.00 -0.92 -0.38  0.00  0.38 -0.92 -0.50  0.00  0.00
  54  54 -1.00  0.00  0.00  0.00 -0.92 -0.38  0.00 -0.38  0.92 -0.50  0.00  0.00
  55  55  1.00  0.00  0.00  0.00 -0.92 -0.38  0.00 -0.38  0.92 -0.50  0.00  0.00
  56  16 -1.00  0.00  0.00  0.00 -0.92 -0.38  0.00  0.38 -0.92 -0.50  0.00  0.00
  57   9  1.00  0.00  0.00  0.00 -0.71  0.71  0.00 -0.71 -0.71 -0.00  0.00  0.00
  58  58 -1.00  0.00  0.00  0.00 -0.71  0.71  0.00  0.71  0.71 -1.00  0.00  0.00
  59  59  1.00  0.00  0.00  0.00 -0.71  0.71  0.00  0.71  0.71  0.00  0.00  0.00
  60  12 -1.00  0.00  0.00  0.00 -0.71  0.71  0.00 -0.71 -0.71 -1.00  0.00  0.00
  61   5  1.00  0.00  0.00  0.00  0.38  0.92  0.00 -0.92  0.38 -0.50  0.00  0.00
  62  62 -1.00  0.00  0.00  0.00  0.38  0.92  0.00  0.92 -0.38 -1.50  0.00  0.00
  63  63  1.00  0.00  0.00  0.00  0.38  0.92  0.00  0.92 -0.38 -0.50  0.00  0.00
  64   8 -1.00  0.00  0.00  0.00  0.38  0.92  0.00 -0.92  0.38 -0.50  0.00  0.00

 DIRECT LATTICE VECTORS CARTESIAN COMPONENTS (ANGSTROM)
          X                    Y                    Z
   0.427816549470E+01   0.000000000000E+00   0.000000000000E+00
   0.000000000000E+00   0.500000000000E+03   0.000000000000E+00
   0.000000000000E+00   0.000000000000E+00   0.500000000000E+03


 CARTESIAN COORDINATES - PRIMITIVE CELL
 *******************************************************************************
 *      ATOM          X(ANGSTROM)         Y(ANGSTROM)         Z(ANGSTROM)
 *******************************************************************************
    1     6 C    -1.426055164898E+00  3.144901675496E+00  8.989660118422E-17
    2     6 C     1.426055164898E+00  3.144901675496E+00 -8.989660118422E-17
    3     6 C     7.130275824492E-01  1.203501767629E+00  2.905510289751E+00
    4     6 C    -7.130275824492E-01  1.203501767629E+00 -2.905510289751E+00
    5     6 C     7.130275824492E-01  1.203501767629E+00 -2.905510289751E+00
    6     6 C    -7.130275824492E-01  1.203501767629E+00  2.905510289751E+00
    7     6 C    -1.426055164898E+00 -2.223781300908E+00  2.223781300908E+00
    8     6 C     1.426055164898E+00 -2.223781300908E+00 -2.223781300908E+00
    9     6 C    -1.426055164898E+00 -2.223781300908E+00 -2.223781300908E+00
   10     6 C     1.426055164898E+00 -2.223781300908E+00  2.223781300908E+00
   11     6 C     7.130275824492E-01 -2.905510289751E+00 -1.203501767629E+00
   12     6 C    -7.130275824492E-01 -2.905510289751E+00  1.203501767629E+00
   13     6 C     7.130275824492E-01 -2.905510289751E+00  1.203501767629E+00
   14     6 C    -7.130275824492E-01 -2.905510289751E+00 -1.203501767629E+00
   15     6 C    -1.426055164898E+00 -4.878124643951E-16 -3.144901675496E+00
   16     6 C     1.426055164898E+00 -4.878124643951E-16  3.144901675496E+00
   17     6 C    -1.426055164898E+00 -4.878124643951E-16  3.144901675496E+00
   18     6 C     1.426055164898E+00 -4.878124643951E-16 -3.144901675496E+00
   19     6 C     7.130275824492E-01  2.905510289751E+00 -1.203501767629E+00
   20     6 C    -7.130275824492E-01  2.905510289751E+00  1.203501767629E+00
   21     6 C     7.130275824492E-01  2.905510289751E+00  1.203501767629E+00
   22     6 C    -7.130275824492E-01  2.905510289751E+00 -1.203501767629E+00
   23     6 C    -1.426055164898E+00  2.223781300908E+00  2.223781300908E+00
   24     6 C     1.426055164898E+00  2.223781300908E+00 -2.223781300908E+00
   25     6 C    -1.426055164898E+00  2.223781300908E+00 -2.223781300908E+00
   26     6 C     1.426055164898E+00  2.223781300908E+00  2.223781300908E+00
   27     6 C     7.130275824492E-01 -1.203501767629E+00  2.905510289751E+00
   28     6 C    -7.130275824492E-01 -1.203501767629E+00 -2.905510289751E+00
   29     6 C     7.130275824492E-01 -1.203501767629E+00 -2.905510289751E+00
   30     6 C    -7.130275824492E-01 -1.203501767629E+00  2.905510289751E+00
   31     6 C    -1.426055164898E+00 -3.144901675496E+00  1.065521529975E-15
   32     6 C     1.426055164898E+00 -3.144901675496E+00 -1.065521529975E-15

 *******************************************************************************
 LOCAL ATOMIC FUNCTIONS BASIS SET
 *******************************************************************************
   ATOM   X(AU)   Y(AU)   Z(AU)  N. TYPE  EXPONENT  S COEF   P COEF   D/F/G COEF
 *******************************************************************************
   1 C   -2.695   5.943   0.000
                                  1 S  
                                         3.048E+03 1.826E-03 0.000E+00 0.000E+00
                                         4.564E+02 1.406E-02 0.000E+00 0.000E+00
                                         1.037E+02 6.876E-02 0.000E+00 0.000E+00
                                         2.923E+01 2.304E-01 0.000E+00 0.000E+00
                                         9.349E+00 4.685E-01 0.000E+00 0.000E+00
                                         3.189E+00 3.628E-01 0.000E+00 0.000E+00
                             2-   5 SP 
                                         3.665E+00-3.959E-01 2.365E-01 0.000E+00
                                         7.705E-01 1.216E+00 8.606E-01 0.000E+00
                             6-   9 SP 
                                         1.959E-01 1.000E+00 1.000E+00 0.000E+00
   2 C    2.695   5.943  -0.000
   3 C    1.347   2.274   5.491
   4 C   -1.347   2.274  -5.491
   5 C    1.347   2.274  -5.491
   6 C   -1.347   2.274   5.491
   7 C   -2.695  -4.202   4.202
   8 C    2.695  -4.202  -4.202
   9 C   -2.695  -4.202  -4.202
  10 C    2.695  -4.202   4.202
  11 C    1.347  -5.491  -2.274
  12 C   -1.347  -5.491   2.274
  13 C    1.347  -5.491   2.274
  14 C   -1.347  -5.491  -2.274
  15 C   -2.695  -0.000  -5.943
  16 C    2.695  -0.000   5.943
  17 C   -2.695  -0.000   5.943
  18 C    2.695  -0.000  -5.943
  19 C    1.347   5.491  -2.274
  20 C   -1.347   5.491   2.274
  21 C    1.347   5.491   2.274
  22 C   -1.347   5.491  -2.274
  23 C   -2.695   4.202   4.202
  24 C    2.695   4.202  -4.202
  25 C   -2.695   4.202  -4.202
  26 C    2.695   4.202   4.202
  27 C    1.347  -2.274   5.491
  28 C   -1.347  -2.274  -5.491
  29 C    1.347  -2.274  -5.491
  30 C   -1.347  -2.274   5.491
  31 C   -2.695  -5.943   0.000
  32 C    2.695  -5.943  -0.000
 INFORMATION **** SET_MPP **** PCRYSTAL CALCULATION
 INFORMATION **** READM2 **** NEW DEFAULT: FOCK/KS MATRIX MIXING SET TO 30 %
 INFORMATION **** READM2 **** NEW DEFAULT: FULL DIRECT SCF MODE
 INFORMATION **** READM2 **** NEW DEFAULT: COULOMB BIPOLAR BUFFER SET TO 32 Mb
 INFORMATION **** READM2 **** NEW DEFAULT: EXCHANGE BIPOLAR BUFFER SET TO 32 Mb

 *******************************************************************************
 NEW DEFAULT: DFT INTEGRATION GRID INCREASED TO XLGRID
 NEW DEFAULT: LEVEL SHIFTER 6 0
 IF THE SYSTEM IS A METAL USE KEYWORD NOSHIFT
 *******************************************************************************

 INFORMATION **** TOLINTEG **** COULOMB AND EXCHANGE SERIES TOLERANCES MODIFIED
 INFORMATION **** READM2 **** FULL DIRECT SCF (MONO AND BIEL INT) SELECTED
 INFORMATION **** LEVSHIFT **** LEVEL SHIFTER ACTIVE
 INFORMATION **** TOLDEE **** SCF TOL ON TOTAL ENERGY SET TO           8
 INFORMATION **** MAXCYCLE **** MAX NUMBER OF SCF CYCLES SET TO         100
 *******************************************************************************
 N. OF ATOMS PER CELL        32  COULOMB OVERLAP TOL         (T1) 10**   -8
 NUMBER OF SHELLS            96  COULOMB PENETRATION TOL     (T2) 10**   -8
 NUMBER OF AO               288  EXCHANGE OVERLAP TOL        (T3) 10**   -8
 N. OF ELECTRONS PER CELL   192  EXCHANGE PSEUDO OVP (F(G))  (T4) 10**   -8
 CORE ELECTRONS PER CELL     64  EXCHANGE PSEUDO OVP (P(G))  (T5) 10**  -16
 N. OF SYMMETRY OPERATORS    64  POLE ORDER IN MONO ZONE                  4
 *******************************************************************************
 TYPE OF CALCULATION :  RESTRICTED CLOSED SHELL
 KOHN-SHAM HAMILTONIAN

 (EXCHANGE)[CORRELATION] FUNCTIONAL:(BECKE 88)[LEE-YANG-PARR]

 NON-LOCAL WEIGHTING FACTOR (EXCHANGE) =           0.9000
 NON-LOCAL WEIGHTING FACTOR [CORRELATION] =        0.8100

 HYBRID EXCHANGE - PERCENTAGE OF FOCK EXCHANGE    20.0000
 EIGENVALUE LEVEL SHIFTING OF  1.000 HARTREE
 LOCKING - FERMI ENERGY ALTERED BY LEVEL SHIFTER

 CAPPA:IS1 10;IS2  1;IS3  1; K PTS MONK NET   6; SYMMOPS:K SPACE  64;G SPACE  64

 *******************************************************************************
 MAX NUMBER OF SCF CYCLES     100  CONVERGENCE ON DELTAP        10**-18
 WEIGHT OF F(I) IN F(I+1)      30% CONVERGENCE ON ENERGY        10**- 8
 EIGENVALUE LEVEL SHIFTING OF  1.000 HARTREE
 LOCKING - FERMI ENERGY ALTERED BY LEVEL SHIFTER
 SHRINK. FACT.(MONKH.)   10  1  1  NUMBER OF K POINTS IN THE IBZ      6
 SHRINKING FACTOR(GILAT NET)   10  NUMBER OF K POINTS(GILAT NET)      6
 *******************************************************************************
 *** K POINTS COORDINATES (OBLIQUE COORDINATES IN UNITS OF IS = 10)
   1-R(  0  0  0)   2-C(  1  0  0)   3-C(  2  0  0)   4-C(  3  0  0)
   5-C(  4  0  0)   6-R(  5  0  0)

 DIRECT LATTICE VECTORS COMPON. (A.U.)     RECIP. LATTICE VECTORS COMPON. (A.U.) 
        X            Y            Z              X            Y            Z
    8.0845611    0.0000000    0.0000000      0.7771832    0.0000000    0.0000000
    0.0000000  944.8630670    0.0000000      0.0000000    0.0066498    0.0000000
    0.0000000    0.0000000  944.8630670      0.0000000    0.0000000    0.0066498

 DISK SPACE FOR EIGENVECTORS (FTN 10)      829440 REALS

 SYMMETRY ADAPTION OF THE BLOCH FUNCTIONS ENABLED
 TTTTTTTTTTTTTTTTTTTTTTTTTTTTTT gordsh1     TELAPSE        1.04 TCPU        0.02

 MATRIX SIZE: P(G)  216640, F(G)   55376, P(G) IRR    2682, F(G) IRR    1427
 MAX G-VECTOR INDEX FOR 1- AND 2-ELECTRON INTEGRALS   7

 TTTTTTTTTTTTTTTTTTTTTTTTTTTTTT INPUT       TELAPSE        1.04 TCPU        0.02

 NEIGHBORS OF THE NON-EQUIVALENT ATOMS

 N = NUMBER OF NEIGHBORS AT DISTANCE R
    ATOM  N     R/ANG      R/AU   NEIGHBORS (ATOM LABELS AND CELL INDICES)
   1 C    2     1.4192     2.6819   20 C    0 0 0   22 C    0 0 0
   1 C    1     1.4261     2.6949    2 C   -1 0 0
   1 C    2     2.4070     4.5486   23 C    0 0 0   25 C    0 0 0
   1 C    4     2.4660     4.6602   19 C    0 0 0   19 C   -1 0 0   21 C    0 0 0
                                    21 C   -1 0 0
   1 C    2     2.7977     5.2869   24 C   -1 0 0   26 C   -1 0 0
   1 C    1     2.8521     5.3897    2 C    0 0 0


 SYMMETRY ALLOWED ELASTIC DISTORTION 1
  1.0000000

 SYMMETRY ALLOWED INTERNAL DEGREE(S) OF FREEDOM:   2
 TTTTTTTTTTTTTTTTTTTTTTTTTTTTTT SYMM        TELAPSE        1.13 TCPU        0.11
 TTTTTTTTTTTTTTTTTTTTTTTTTTTTTT INT_SCREEN  TELAPSE        1.14 TCPU        0.12
 *******************************************************************************
 COORDINATE AND CELL OPTIMIZATION - POINT    1
 INFORMATION **** EXCBUF **** EXCH. BIPO BUFFER: WORDS USED =      418068

 DFT PARAMETERS

     ATOM       ELECTRONS   NET CHARGE   R(ANGSTROM)
   1   6  C       6.0000      0.0000     0.77000000

 SIZE OF GRID=      16895
 TTTTTTTTTTTTTTTTTTTTTTTTTTTTTT MAKE_GRID2  TELAPSE        1.53 TCPU        0.51
 BECKE WEIGHT FUNCTION
 RADSAFE =     2.00
 TOLERANCES - DENSITY:10**- 6; POTENTIAL:10**- 9; GRID WGT:10**-14

 RADIAL INTEGRATION  - INTERVALS (POINTS,UPPER LIMIT):            1( 75,  4.0*R)

 ANGULAR INTEGRATION - INTERVALS (ACCURACY LEVEL [N. POINTS] UPPER LIMIT):
  1(  4[  86]   0.2)  2(  8[ 194]   0.5)  3( 12[ 350]   0.9)  4( 16[ 974]   3.5)
  5( 12[ 350]9999.0)
 TTTTTTTTTTTTTTTTTTTTTTTTTTTTTT INT_CALC    TELAPSE        1.53 TCPU        0.51

 *******************************************************************************
 TEST05 - zigzag C NANOTUBE - 6-21G, B3LYP, optimization                         
 CRYSTAL - SCF - TYPE OF CALCULATION :  RESTRICTED CLOSED SHELL
 *******************************************************************************

 CAPPA:IS1 10;IS2  1;IS3  1; K PTS MONK NET   6; SYMMOPS:K SPACE  64;G SPACE  64

 TTTTTTTTTTTTTTTTTTTTTTTTTTTTTT SDIK        TELAPSE        1.55 TCPU        0.53

 AAAAAAAAAAAAAAAAAAAAAAAAAAAAAAAAAAAAAAAAAAAAAAAAAAAAAAAAAAAAAAAAAAAAAAAAAAAAAAA
         ATOMIC WAVEFUNCTION(S)


 NUCLEAR CHARGE  6.0  SYMMETRY SPECIES            S    P
 N. ELECTRONS    6.0  NUMBER OF PRIMITIVE GTOS    9    3
                      NUMBER OF CONTRACTED GTOS   3    2
                      NUMBER OF CLOSED SHELLS     2    0
                      OPEN SHELL OCCUPATION       0    2

  ZNUC SCFIT  TOTAL HF ENERGY   KINETIC ENERGY   VIRIAL THEOREM ACCURACY
   6.0   9   -3.765831823E+01  3.765320062E+01 -2.000135914E+00  1.5E-06

 AAAAAAAAAAAAAAAAAAAAAAAAAAAAAAAAAAAAAAAAAAAAAAAAAAAAAAAAAAAAAAAAAAAAAAAAAAAAAAA

 CHARGE NORMALIZATION FACTOR   1.00000000
 TOTAL ATOMIC CHARGES:
   6.0000000   6.0000000   6.0000000   6.0000000   6.0000000   6.0000000
   6.0000000   6.0000000   6.0000000   6.0000000   6.0000000   6.0000000
   6.0000000   6.0000000   6.0000000   6.0000000   6.0000000   6.0000000
   6.0000000   6.0000000   6.0000000   6.0000000   6.0000000   6.0000000
   6.0000000   6.0000000   6.0000000   6.0000000   6.0000000   6.0000000
   6.0000000   6.0000000
 TTTTTTTTTTTTTTTTTTTTTTTTTTTTTT MOQGAD      TELAPSE        1.56 TCPU        0.54
 TTTTTTTTTTTTTTTTTTTTTTTTTTTTTT SHELLX2     TELAPSE        1.64 TCPU        0.62
 TTTTTTTTTTTTTTTTTTTTTTTTTTTTTT MONMO3      TELAPSE        2.06 TCPU        1.04
 NUMERICALLY INTEGRATED DENSITY    192.0000967038
 TTTTTTTTTTTTTTTTTTTTTTTTTTTTTT NUMDFT      TELAPSE        2.18 TCPU        1.16
 CYC   0 ETOT(AU) -1.230226407565E+03 DETOT -1.23E+03 tst  0.00E+00 PX  1.00E+00
 TTTTTTTTTTTTTTTTTTTTTTTTTTTTTT FDIK        TELAPSE        2.19 TCPU        1.17
 INSULATING STATE - LEVEL SHIFTER    1.00 au
 TOP OF VALENCE BANDS -    BAND     96; K    1; EIG -2.1980178E-01 AU
 BOTTOM OF VIRTUAL BANDS - BAND     97; K    1; EIG -1.8763521E-01 AU
 TTTTTTTTTTTTTTTTTTTTTTTTTTTTTT PDIG        TELAPSE        2.26 TCPU        1.24
 CHARGE NORMALIZATION FACTOR   1.00000000
 TOTAL ATOMIC CHARGES:
   6.0000000   6.0000000   6.0000000   6.0000000   6.0000000   6.0000000
   6.0000000   6.0000000   6.0000000   6.0000000   6.0000000   6.0000000
   6.0000000   6.0000000   6.0000000   6.0000000   6.0000000   6.0000000
   6.0000000   6.0000000   6.0000000   6.0000000   6.0000000   6.0000000
   6.0000000   6.0000000   6.0000000   6.0000000   6.0000000   6.0000000
   6.0000000   6.0000000
 TTTTTTTTTTTTTTTTTTTTTTTTTTTTTT MOQGAD      TELAPSE        2.27 TCPU        1.25
 TTTTTTTTTTTTTTTTTTTTTTTTTTTTTT SHELLX2     TELAPSE        2.36 TCPU        1.34
 TTTTTTTTTTTTTTTTTTTTTTTTTTTTTT MONMO3      TELAPSE        2.80 TCPU        1.78
 NUMERICALLY INTEGRATED DENSITY    192.0000381127
 TTTTTTTTTTTTTTTTTTTTTTTTTTTTTT NUMDFT      TELAPSE        3.08 TCPU        2.05
 CYC   1 ETOT(AU) -1.217532427554E+03 DETOT  1.27E+01 tst  0.00E+00 PX  1.00E+00
 TTTTTTTTTTTTTTTTTTTTTTTTTTTTTT FDIK        TELAPSE        3.08 TCPU        2.06
 INSULATING STATE - LEVEL SHIFTER    1.00 au
 TOP OF VALENCE BANDS -    BAND     96; K    1; EIG -1.1664022E+00 AU
 BOTTOM OF VIRTUAL BANDS - BAND     97; K    1; EIG -1.2028185E-01 AU
 TTTTTTTTTTTTTTTTTTTTTTTTTTTTTT PDIG        TELAPSE        3.15 TCPU        2.12
 CHARGE NORMALIZATION FACTOR   1.00000000
 TOTAL ATOMIC CHARGES:
   6.0000000   6.0000000   6.0000000   6.0000000   6.0000000   6.0000000
   6.0000000   6.0000000   6.0000000   6.0000000   6.0000000   6.0000000
   6.0000000   6.0000000   6.0000000   6.0000000   6.0000000   6.0000000
   6.0000000   6.0000000   6.0000000   6.0000000   6.0000000   6.0000000
   6.0000000   6.0000000   6.0000000   6.0000000   6.0000000   6.0000000
   6.0000000   6.0000000
 TTTTTTTTTTTTTTTTTTTTTTTTTTTTTT MOQGAD      TELAPSE        3.16 TCPU        2.13
 TTTTTTTTTTTTTTTTTTTTTTTTTTTTTT SHELLX2     TELAPSE        3.25 TCPU        2.22
 TTTTTTTTTTTTTTTTTTTTTTTTTTTTTT MONMO3      TELAPSE        3.69 TCPU        2.66
 NUMERICALLY INTEGRATED DENSITY    192.0000361754
 TTTTTTTTTTTTTTTTTTTTTTTTTTTTTT NUMDFT      TELAPSE        3.92 TCPU        2.90
 CYC   2 ETOT(AU) -1.217597246821E+03 DETOT -6.48E-02 tst  9.50E-04 PX  1.61E-02
 TTTTTTTTTTTTTTTTTTTTTTTTTTTTTT FDIK        TELAPSE        3.93 TCPU        2.90
 INSULATING STATE - LEVEL SHIFTER    1.00 au
 TOP OF VALENCE BANDS -    BAND     96; K    1; EIG -1.1647051E+00 AU
 BOTTOM OF VIRTUAL BANDS - BAND     97; K    1; EIG -1.1280922E-01 AU
 TTTTTTTTTTTTTTTTTTTTTTTTTTTTTT PDIG        TELAPSE        3.99 TCPU        2.96
 CHARGE NORMALIZATION FACTOR   1.00000000
 TOTAL ATOMIC CHARGES:
   6.0000000   6.0000000   6.0000000   6.0000000   6.0000000   6.0000000
   6.0000000   6.0000000   6.0000000   6.0000000   6.0000000   6.0000000
   6.0000000   6.0000000   6.0000000   6.0000000   6.0000000   6.0000000
   6.0000000   6.0000000   6.0000000   6.0000000   6.0000000   6.0000000
   6.0000000   6.0000000   6.0000000   6.0000000   6.0000000   6.0000000
   6.0000000   6.0000000
 TTTTTTTTTTTTTTTTTTTTTTTTTTTTTT MOQGAD      TELAPSE        4.00 TCPU        2.97
 TTTTTTTTTTTTTTTTTTTTTTTTTTTTTT SHELLX2     TELAPSE        4.08 TCPU        3.06
 TTTTTTTTTTTTTTTTTTTTTTTTTTTTTT MONMO3      TELAPSE        4.52 TCPU        3.50
 NUMERICALLY INTEGRATED DENSITY    192.0000350562
 TTTTTTTTTTTTTTTTTTTTTTTTTTTTTT NUMDFT      TELAPSE        4.78 TCPU        3.75
 CYC   3 ETOT(AU) -1.217613213157E+03 DETOT -1.60E-02 tst  4.02E-04 PX  1.04E-02
 TTTTTTTTTTTTTTTTTTTTTTTTTTTTTT FDIK        TELAPSE        4.79 TCPU        3.76
 INSULATING STATE - LEVEL SHIFTER    1.00 au
 TOP OF VALENCE BANDS -    BAND     96; K    1; EIG -1.1717172E+00 AU
 BOTTOM OF VIRTUAL BANDS - BAND     97; K    1; EIG -1.1804723E-01 AU
 TTTTTTTTTTTTTTTTTTTTTTTTTTTTTT PDIG        TELAPSE        4.84 TCPU        3.81
 CHARGE NORMALIZATION FACTOR   1.00000000
 TOTAL ATOMIC CHARGES:
   6.0000000   6.0000000   6.0000000   6.0000000   6.0000000   6.0000000
   6.0000000   6.0000000   6.0000000   6.0000000   6.0000000   6.0000000
   6.0000000   6.0000000   6.0000000   6.0000000   6.0000000   6.0000000
   6.0000000   6.0000000   6.0000000   6.0000000   6.0000000   6.0000000
   6.0000000   6.0000000   6.0000000   6.0000000   6.0000000   6.0000000
   6.0000000   6.0000000
 TTTTTTTTTTTTTTTTTTTTTTTTTTTTTT MOQGAD      TELAPSE        4.85 TCPU        3.82
 TTTTTTTTTTTTTTTTTTTTTTTTTTTTTT SHELLX2     TELAPSE        4.94 TCPU        3.91
 TTTTTTTTTTTTTTTTTTTTTTTTTTTTTT MONMO3      TELAPSE        5.38 TCPU        4.35
 NUMERICALLY INTEGRATED DENSITY    192.0000347220
 TTTTTTTTTTTTTTTTTTTTTTTTTTTTTT NUMDFT      TELAPSE        5.65 TCPU        4.62
 CYC   4 ETOT(AU) -1.217615738918E+03 DETOT -2.53E-03 tst  8.38E-05 PX  9.91E-03
 TTTTTTTTTTTTTTTTTTTTTTTTTTTTTT FDIK        TELAPSE        5.66 TCPU        4.63
 INSULATING STATE - LEVEL SHIFTER    1.00 au
 TOP OF VALENCE BANDS -    BAND     96; K    1; EIG -1.1761136E+00 AU
 BOTTOM OF VIRTUAL BANDS - BAND     97; K    1; EIG -1.2216195E-01 AU
 TTTTTTTTTTTTTTTTTTTTTTTTTTTTTT PDIG        TELAPSE        5.71 TCPU        4.68
 CHARGE NORMALIZATION FACTOR   1.00000000
 TOTAL ATOMIC CHARGES:
   6.0000000   6.0000000   6.0000000   6.0000000   6.0000000   6.0000000
   6.0000000   6.0000000   6.0000000   6.0000000   6.0000000   6.0000000
   6.0000000   6.0000000   6.0000000   6.0000000   6.0000000   6.0000000
   6.0000000   6.0000000   6.0000000   6.0000000   6.0000000   6.0000000
   6.0000000   6.0000000   6.0000000   6.0000000   6.0000000   6.0000000
   6.0000000   6.0000000
 TTTTTTTTTTTTTTTTTTTTTTTTTTTTTT MOQGAD      TELAPSE        5.72 TCPU        4.69
 TTTTTTTTTTTTTTTTTTTTTTTTTTTTTT SHELLX2     TELAPSE        5.81 TCPU        4.78
 TTTTTTTTTTTTTTTTTTTTTTTTTTTTTT MONMO3      TELAPSE        6.25 TCPU        5.22
 NUMERICALLY INTEGRATED DENSITY    192.0000346725
 TTTTTTTTTTTTTTTTTTTTTTTTTTTTTT NUMDFT      TELAPSE        6.53 TCPU        5.50
 CYC   5 ETOT(AU) -1.217616295121E+03 DETOT -5.56E-04 tst  3.54E-05 PX  7.16E-03
 TTTTTTTTTTTTTTTTTTTTTTTTTTTTTT FDIK        TELAPSE        6.54 TCPU        5.51
 INSULATING STATE - LEVEL SHIFTER    1.00 au
 TOP OF VALENCE BANDS -    BAND     96; K    1; EIG -1.1777334E+00 AU
 BOTTOM OF VIRTUAL BANDS - BAND     97; K    1; EIG -1.2368557E-01 AU
 TTTTTTTTTTTTTTTTTTTTTTTTTTTTTT PDIG        TELAPSE        6.58 TCPU        5.55
 CHARGE NORMALIZATION FACTOR   1.00000000
 TOTAL ATOMIC CHARGES:
   6.0000000   6.0000000   6.0000000   6.0000000   6.0000000   6.0000000
   6.0000000   6.0000000   6.0000000   6.0000000   6.0000000   6.0000000
   6.0000000   6.0000000   6.0000000   6.0000000   6.0000000   6.0000000
   6.0000000   6.0000000   6.0000000   6.0000000   6.0000000   6.0000000
   6.0000000   6.0000000   6.0000000   6.0000000   6.0000000   6.0000000
   6.0000000   6.0000000
 TTTTTTTTTTTTTTTTTTTTTTTTTTTTTT MOQGAD      TELAPSE        6.60 TCPU        5.57
 TTTTTTTTTTTTTTTTTTTTTTTTTTTTTT SHELLX2     TELAPSE        6.69 TCPU        5.65
 TTTTTTTTTTTTTTTTTTTTTTTTTTTTTT MONMO3      TELAPSE        7.12 TCPU        6.09
 NUMERICALLY INTEGRATED DENSITY    192.0000346574
 TTTTTTTTTTTTTTTTTTTTTTTTTTTTTT NUMDFT      TELAPSE        7.40 TCPU        6.37
 CYC   6 ETOT(AU) -1.217616481831E+03 DETOT -1.87E-04 tst  2.67E-05 PX  4.78E-03
 TTTTTTTTTTTTTTTTTTTTTTTTTTTTTT FDIK        TELAPSE        7.41 TCPU        6.38
 INSULATING STATE - LEVEL SHIFTER    1.00 au
 TOP OF VALENCE BANDS -    BAND     96; K    1; EIG -1.1781018E+00 AU
 BOTTOM OF VIRTUAL BANDS - BAND     97; K    1; EIG -1.2401123E-01 AU
 TTTTTTTTTTTTTTTTTTTTTTTTTTTTTT PDIG        TELAPSE        7.45 TCPU        6.42
 CHARGE NORMALIZATION FACTOR   1.00000000
 TOTAL ATOMIC CHARGES:
   6.0000000   6.0000000   6.0000000   6.0000000   6.0000000   6.0000000
   6.0000000   6.0000000   6.0000000   6.0000000   6.0000000   6.0000000
   6.0000000   6.0000000   6.0000000   6.0000000   6.0000000   6.0000000
   6.0000000   6.0000000   6.0000000   6.0000000   6.0000000   6.0000000
   6.0000000   6.0000000   6.0000000   6.0000000   6.0000000   6.0000000
   6.0000000   6.0000000
 TTTTTTTTTTTTTTTTTTTTTTTTTTTTTT MOQGAD      TELAPSE        7.47 TCPU        6.43
 TTTTTTTTTTTTTTTTTTTTTTTTTTTTTT SHELLX2     TELAPSE        7.56 TCPU        6.52
 TTTTTTTTTTTTTTTTTTTTTTTTTTTTTT MONMO3      TELAPSE        7.99 TCPU        6.96
 NUMERICALLY INTEGRATED DENSITY    192.0000346275
 TTTTTTTTTTTTTTTTTTTTTTTTTTTTTT NUMDFT      TELAPSE        8.27 TCPU        7.24
 CYC   7 ETOT(AU) -1.217616551489E+03 DETOT -6.97E-05 tst  1.95E-05 PX  3.08E-03
 TTTTTTTTTTTTTTTTTTTTTTTTTTTTTT FDIK        TELAPSE        8.28 TCPU        7.24
 INSULATING STATE - LEVEL SHIFTER    1.00 au
 TOP OF VALENCE BANDS -    BAND     96; K    1; EIG -1.1781177E+00 AU
 BOTTOM OF VIRTUAL BANDS - BAND     97; K    1; EIG -1.2400172E-01 AU
 TTTTTTTTTTTTTTTTTTTTTTTTTTTTTT PDIG        TELAPSE        8.32 TCPU        7.28
 CHARGE NORMALIZATION FACTOR   1.00000000
 TOTAL ATOMIC CHARGES:
   6.0000000   6.0000000   6.0000000   6.0000000   6.0000000   6.0000000
   6.0000000   6.0000000   6.0000000   6.0000000   6.0000000   6.0000000
   6.0000000   6.0000000   6.0000000   6.0000000   6.0000000   6.0000000
   6.0000000   6.0000000   6.0000000   6.0000000   6.0000000   6.0000000
   6.0000000   6.0000000   6.0000000   6.0000000   6.0000000   6.0000000
   6.0000000   6.0000000
 TTTTTTTTTTTTTTTTTTTTTTTTTTTTTT MOQGAD      TELAPSE        8.34 TCPU        7.30
 TTTTTTTTTTTTTTTTTTTTTTTTTTTTTT SHELLX2     TELAPSE        8.43 TCPU        7.39
 TTTTTTTTTTTTTTTTTTTTTTTTTTTTTT MONMO3      TELAPSE        8.86 TCPU        7.82
 NUMERICALLY INTEGRATED DENSITY    192.0000345936
 TTTTTTTTTTTTTTTTTTTTTTTTTTTTTT NUMDFT      TELAPSE        9.15 TCPU        8.11
 CYC   8 ETOT(AU) -1.217616579818E+03 DETOT -2.83E-05 tst  1.42E-05 PX  1.90E-03
 TTTTTTTTTTTTTTTTTTTTTTTTTTTTTT FDIK        TELAPSE        9.17 TCPU        8.12
 INSULATING STATE - LEVEL SHIFTER    1.00 au
 TOP OF VALENCE BANDS -    BAND     96; K    1; EIG -1.1780901E+00 AU
 BOTTOM OF VIRTUAL BANDS - BAND     97; K    1; EIG -1.2395549E-01 AU
 TTTTTTTTTTTTTTTTTTTTTTTTTTTTTT PDIG        TELAPSE        9.22 TCPU        8.16
 CHARGE NORMALIZATION FACTOR   1.00000000
 TOTAL ATOMIC CHARGES:
   6.0000000   6.0000000   6.0000000   6.0000000   6.0000000   6.0000000
   6.0000000   6.0000000   6.0000000   6.0000000   6.0000000   6.0000000
   6.0000000   6.0000000   6.0000000   6.0000000   6.0000000   6.0000000
   6.0000000   6.0000000   6.0000000   6.0000000   6.0000000   6.0000000
   6.0000000   6.0000000   6.0000000   6.0000000   6.0000000   6.0000000
   6.0000000   6.0000000
 TTTTTTTTTTTTTTTTTTTTTTTTTTTTTT MOQGAD      TELAPSE        9.23 TCPU        8.18
 TTTTTTTTTTTTTTTTTTTTTTTTTTTTTT SHELLX2     TELAPSE        9.32 TCPU        8.26
 TTTTTTTTTTTTTTTTTTTTTTTTTTTTTT MONMO3      TELAPSE        9.76 TCPU        8.70
 NUMERICALLY INTEGRATED DENSITY    192.0000345660
 TTTTTTTTTTTTTTTTTTTTTTTTTTTTTT NUMDFT      TELAPSE       10.03 TCPU        8.98
 CYC   9 ETOT(AU) -1.217616592726E+03 DETOT -1.29E-05 tst  1.03E-05 PX  1.15E-03
 TTTTTTTTTTTTTTTTTTTTTTTTTTTTTT FDIK        TELAPSE       10.04 TCPU        8.98
 INSULATING STATE - LEVEL SHIFTER    1.00 au
 TOP OF VALENCE BANDS -    BAND     96; K    1; EIG -1.1780782E+00 AU
 BOTTOM OF VIRTUAL BANDS - BAND     97; K    1; EIG -1.2392835E-01 AU
 TTTTTTTTTTTTTTTTTTTTTTTTTTTTTT PDIG        TELAPSE       10.08 TCPU        9.02
 CHARGE NORMALIZATION FACTOR   1.00000000
 TOTAL ATOMIC CHARGES:
   6.0000000   6.0000000   6.0000000   6.0000000   6.0000000   6.0000000
   6.0000000   6.0000000   6.0000000   6.0000000   6.0000000   6.0000000
   6.0000000   6.0000000   6.0000000   6.0000000   6.0000000   6.0000000
   6.0000000   6.0000000   6.0000000   6.0000000   6.0000000   6.0000000
   6.0000000   6.0000000   6.0000000   6.0000000   6.0000000   6.0000000
   6.0000000   6.0000000
 TTTTTTTTTTTTTTTTTTTTTTTTTTTTTT MOQGAD      TELAPSE       10.10 TCPU        9.04
 TTTTTTTTTTTTTTTTTTTTTTTTTTTTTT SHELLX2     TELAPSE       10.19 TCPU        9.13
 TTTTTTTTTTTTTTTTTTTTTTTTTTTTTT MONMO3      TELAPSE       10.62 TCPU        9.56
 NUMERICALLY INTEGRATED DENSITY    192.0000345467
 TTTTTTTTTTTTTTTTTTTTTTTTTTTTTT NUMDFT      TELAPSE       10.86 TCPU        9.80
 CYC  10 ETOT(AU) -1.217616599326E+03 DETOT -6.60E-06 tst  7.43E-06 PX  6.79E-04
 TTTTTTTTTTTTTTTTTTTTTTTTTTTTTT FDIK        TELAPSE       10.87 TCPU        9.81
 INSULATING STATE - LEVEL SHIFTER    1.00 au
 TOP OF VALENCE BANDS -    BAND     96; K    1; EIG -1.1780775E+00 AU
 BOTTOM OF VIRTUAL BANDS - BAND     97; K    1; EIG -1.2391480E-01 AU
 TTTTTTTTTTTTTTTTTTTTTTTTTTTTTT PDIG        TELAPSE       10.91 TCPU        9.85
 CHARGE NORMALIZATION FACTOR   1.00000000
 TOTAL ATOMIC CHARGES:
   6.0000000   6.0000000   6.0000000   6.0000000   6.0000000   6.0000000
   6.0000000   6.0000000   6.0000000   6.0000000   6.0000000   6.0000000
   6.0000000   6.0000000   6.0000000   6.0000000   6.0000000   6.0000000
   6.0000000   6.0000000   6.0000000   6.0000000   6.0000000   6.0000000
   6.0000000   6.0000000   6.0000000   6.0000000   6.0000000   6.0000000
   6.0000000   6.0000000
 TTTTTTTTTTTTTTTTTTTTTTTTTTTTTT MOQGAD      TELAPSE       10.92 TCPU        9.86
 TTTTTTTTTTTTTTTTTTTTTTTTTTTTTT SHELLX2     TELAPSE       11.00 TCPU        9.94
 TTTTTTTTTTTTTTTTTTTTTTTTTTTTTT MONMO3      TELAPSE       11.45 TCPU       10.39
 NUMERICALLY INTEGRATED DENSITY    192.0000345336
 TTTTTTTTTTTTTTTTTTTTTTTTTTTTTT NUMDFT      TELAPSE       11.69 TCPU       10.63
 CYC  11 ETOT(AU) -1.217616602994E+03 DETOT -3.67E-06 tst  5.38E-06 PX  3.91E-04
 TTTTTTTTTTTTTTTTTTTTTTTTTTTTTT FDIK        TELAPSE       11.70 TCPU       10.64
 INSULATING STATE - LEVEL SHIFTER    1.00 au
 TOP OF VALENCE BANDS -    BAND     96; K    1; EIG -1.1780800E+00 AU
 BOTTOM OF VIRTUAL BANDS - BAND     97; K    1; EIG -1.2390616E-01 AU
 TTTTTTTTTTTTTTTTTTTTTTTTTTTTTT PDIG        TELAPSE       11.74 TCPU       10.68
 CHARGE NORMALIZATION FACTOR   1.00000000
 TOTAL ATOMIC CHARGES:
   6.0000000   6.0000000   6.0000000   6.0000000   6.0000000   6.0000000
   6.0000000   6.0000000   6.0000000   6.0000000   6.0000000   6.0000000
   6.0000000   6.0000000   6.0000000   6.0000000   6.0000000   6.0000000
   6.0000000   6.0000000   6.0000000   6.0000000   6.0000000   6.0000000
   6.0000000   6.0000000   6.0000000   6.0000000   6.0000000   6.0000000
   6.0000000   6.0000000
 TTTTTTTTTTTTTTTTTTTTTTTTTTTTTT MOQGAD      TELAPSE       11.75 TCPU       10.70
 TTTTTTTTTTTTTTTTTTTTTTTTTTTTTT SHELLX2     TELAPSE       11.84 TCPU       10.77
 TTTTTTTTTTTTTTTTTTTTTTTTTTTTTT MONMO3      TELAPSE       12.28 TCPU       11.22
 NUMERICALLY INTEGRATED DENSITY    192.0000345244
 TTTTTTTTTTTTTTTTTTTTTTTTTTTTTT NUMDFT      TELAPSE       12.50 TCPU       11.43
 CYC  12 ETOT(AU) -1.217616605227E+03 DETOT -2.23E-06 tst  3.89E-06 PX  2.24E-04
 TTTTTTTTTTTTTTTTTTTTTTTTTTTTTT FDIK        TELAPSE       12.51 TCPU       11.44
 INSULATING STATE - LEVEL SHIFTER    1.00 au
 TOP OF VALENCE BANDS -    BAND     96; K    1; EIG -1.1780825E+00 AU
 BOTTOM OF VIRTUAL BANDS - BAND     97; K    1; EIG -1.2389890E-01 AU
 TTTTTTTTTTTTTTTTTTTTTTTTTTTTTT PDIG        TELAPSE       12.55 TCPU       11.48
 CHARGE NORMALIZATION FACTOR   1.00000000
 TOTAL ATOMIC CHARGES:
   6.0000000   6.0000000   6.0000000   6.0000000   6.0000000   6.0000000
   6.0000000   6.0000000   6.0000000   6.0000000   6.0000000   6.0000000
   6.0000000   6.0000000   6.0000000   6.0000000   6.0000000   6.0000000
   6.0000000   6.0000000   6.0000000   6.0000000   6.0000000   6.0000000
   6.0000000   6.0000000   6.0000000   6.0000000   6.0000000   6.0000000
   6.0000000   6.0000000
 TTTTTTTTTTTTTTTTTTTTTTTTTTTTTT MOQGAD      TELAPSE       12.56 TCPU       11.50
 TTTTTTTTTTTTTTTTTTTTTTTTTTTTTT SHELLX2     TELAPSE       12.64 TCPU       11.58
 TTTTTTTTTTTTTTTTTTTTTTTTTTTTTT MONMO3      TELAPSE       13.09 TCPU       12.02
 NUMERICALLY INTEGRATED DENSITY    192.0000345172
 TTTTTTTTTTTTTTTTTTTTTTTTTTTTTT NUMDFT      TELAPSE       13.30 TCPU       12.24
 CYC  13 ETOT(AU) -1.217616606633E+03 DETOT -1.41E-06 tst  2.82E-06 PX  1.37E-04
 TTTTTTTTTTTTTTTTTTTTTTTTTTTTTT FDIK        TELAPSE       13.31 TCPU       12.25
 INSULATING STATE - LEVEL SHIFTER    1.00 au
 TOP OF VALENCE BANDS -    BAND     96; K    1; EIG -1.1780845E+00 AU
 BOTTOM OF VIRTUAL BANDS - BAND     97; K    1; EIG -1.2389236E-01 AU
 TTTTTTTTTTTTTTTTTTTTTTTTTTTTTT PDIG        TELAPSE       13.35 TCPU       12.28
 CHARGE NORMALIZATION FACTOR   1.00000000
 TOTAL ATOMIC CHARGES:
   6.0000000   6.0000000   6.0000000   6.0000000   6.0000000   6.0000000
   6.0000000   6.0000000   6.0000000   6.0000000   6.0000000   6.0000000
   6.0000000   6.0000000   6.0000000   6.0000000   6.0000000   6.0000000
   6.0000000   6.0000000   6.0000000   6.0000000   6.0000000   6.0000000
   6.0000000   6.0000000   6.0000000   6.0000000   6.0000000   6.0000000
   6.0000000   6.0000000
 TTTTTTTTTTTTTTTTTTTTTTTTTTTTTT MOQGAD      TELAPSE       13.37 TCPU       12.30
 TTTTTTTTTTTTTTTTTTTTTTTTTTTTTT SHELLX2     TELAPSE       13.45 TCPU       12.38
 TTTTTTTTTTTTTTTTTTTTTTTTTTTTTT MONMO3      TELAPSE       13.89 TCPU       12.82
 NUMERICALLY INTEGRATED DENSITY    192.0000345116
 TTTTTTTTTTTTTTTTTTTTTTTTTTTTTT NUMDFT      TELAPSE       14.11 TCPU       13.04
 CYC  14 ETOT(AU) -1.217616607582E+03 DETOT -9.49E-07 tst  2.04E-06 PX  8.09E-05
 TTTTTTTTTTTTTTTTTTTTTTTTTTTTTT FDIK        TELAPSE       14.12 TCPU       13.05
 INSULATING STATE - LEVEL SHIFTER    1.00 au
 TOP OF VALENCE BANDS -    BAND     96; K    1; EIG -1.1780864E+00 AU
 BOTTOM OF VIRTUAL BANDS - BAND     97; K    1; EIG -1.2388663E-01 AU
 TTTTTTTTTTTTTTTTTTTTTTTTTTTTTT PDIG        TELAPSE       14.16 TCPU       13.09
 CHARGE NORMALIZATION FACTOR   1.00000000
 TOTAL ATOMIC CHARGES:
   6.0000000   6.0000000   6.0000000   6.0000000   6.0000000   6.0000000
   6.0000000   6.0000000   6.0000000   6.0000000   6.0000000   6.0000000
   6.0000000   6.0000000   6.0000000   6.0000000   6.0000000   6.0000000
   6.0000000   6.0000000   6.0000000   6.0000000   6.0000000   6.0000000
   6.0000000   6.0000000   6.0000000   6.0000000   6.0000000   6.0000000
   6.0000000   6.0000000
 TTTTTTTTTTTTTTTTTTTTTTTTTTTTTT MOQGAD      TELAPSE       14.17 TCPU       13.11
 TTTTTTTTTTTTTTTTTTTTTTTTTTTTTT SHELLX2     TELAPSE       14.34 TCPU       13.19
 TTTTTTTTTTTTTTTTTTTTTTTTTTTTTT MONMO3      TELAPSE       14.70 TCPU       13.54
 NUMERICALLY INTEGRATED DENSITY    192.0000345069
 TTTTTTTTTTTTTTTTTTTTTTTTTTTTTT NUMDFT      TELAPSE       14.92 TCPU       13.76
 CYC  15 ETOT(AU) -1.217616608187E+03 DETOT -6.05E-07 tst  1.47E-06 PX  4.61E-05
 TTTTTTTTTTTTTTTTTTTTTTTTTTTTTT FDIK        TELAPSE       14.92 TCPU       13.77
 INSULATING STATE - LEVEL SHIFTER    1.00 au
 TOP OF VALENCE BANDS -    BAND     96; K    1; EIG -1.1780883E+00 AU
 BOTTOM OF VIRTUAL BANDS - BAND     97; K    1; EIG -1.2388173E-01 AU
 TTTTTTTTTTTTTTTTTTTTTTTTTTTTTT PDIG        TELAPSE       14.97 TCPU       13.81
 CHARGE NORMALIZATION FACTOR   1.00000000
 TOTAL ATOMIC CHARGES:
   6.0000000   6.0000000   6.0000000   6.0000000   6.0000000   6.0000000
   6.0000000   6.0000000   6.0000000   6.0000000   6.0000000   6.0000000
   6.0000000   6.0000000   6.0000000   6.0000000   6.0000000   6.0000000
   6.0000000   6.0000000   6.0000000   6.0000000   6.0000000   6.0000000
   6.0000000   6.0000000   6.0000000   6.0000000   6.0000000   6.0000000
   6.0000000   6.0000000
 TTTTTTTTTTTTTTTTTTTTTTTTTTTTTT MOQGAD      TELAPSE       14.98 TCPU       13.83
 TTTTTTTTTTTTTTTTTTTTTTTTTTTTTT SHELLX2     TELAPSE       15.06 TCPU       13.91
 TTTTTTTTTTTTTTTTTTTTTTTTTTTTTT MONMO3      TELAPSE       15.51 TCPU       14.35
 NUMERICALLY INTEGRATED DENSITY    192.0000345029
 TTTTTTTTTTTTTTTTTTTTTTTTTTTTTT NUMDFT      TELAPSE       15.72 TCPU       14.57
 CYC  16 ETOT(AU) -1.217616608582E+03 DETOT -3.96E-07 tst  1.06E-06 PX  2.65E-05
 TTTTTTTTTTTTTTTTTTTTTTTTTTTTTT FDIK        TELAPSE       15.73 TCPU       14.58
 INSULATING STATE - LEVEL SHIFTER    1.00 au
 TOP OF VALENCE BANDS -    BAND     96; K    1; EIG -1.1780902E+00 AU
 BOTTOM OF VIRTUAL BANDS - BAND     97; K    1; EIG -1.2387758E-01 AU
 TTTTTTTTTTTTTTTTTTTTTTTTTTTTTT PDIG        TELAPSE       15.77 TCPU       14.62
 CHARGE NORMALIZATION FACTOR   1.00000000
 TOTAL ATOMIC CHARGES:
   6.0000000   6.0000000   6.0000000   6.0000000   6.0000000   6.0000000
   6.0000000   6.0000000   6.0000000   6.0000000   6.0000000   6.0000000
   6.0000000   6.0000000   6.0000000   6.0000000   6.0000000   6.0000000
   6.0000000   6.0000000   6.0000000   6.0000000   6.0000000   6.0000000
   6.0000000   6.0000000   6.0000000   6.0000000   6.0000000   6.0000000
   6.0000000   6.0000000
 TTTTTTTTTTTTTTTTTTTTTTTTTTTTTT MOQGAD      TELAPSE       15.79 TCPU       14.63
 TTTTTTTTTTTTTTTTTTTTTTTTTTTTTT SHELLX2     TELAPSE       15.87 TCPU       14.71
 TTTTTTTTTTTTTTTTTTTTTTTTTTTTTT MONMO3      TELAPSE       16.31 TCPU       15.16
 NUMERICALLY INTEGRATED DENSITY    192.0000344996
 TTTTTTTTTTTTTTTTTTTTTTTTTTTTTT NUMDFT      TELAPSE       16.53 TCPU       15.37
 CYC  17 ETOT(AU) -1.217616608828E+03 DETOT -2.46E-07 tst  7.67E-07 PX  2.01E-05
 TTTTTTTTTTTTTTTTTTTTTTTTTTTTTT FDIK        TELAPSE       16.54 TCPU       15.38
 INSULATING STATE - LEVEL SHIFTER    1.00 au
 TOP OF VALENCE BANDS -    BAND     96; K    1; EIG -1.1780921E+00 AU
 BOTTOM OF VIRTUAL BANDS - BAND     97; K    1; EIG -1.2387406E-01 AU
 TTTTTTTTTTTTTTTTTTTTTTTTTTTTTT PDIG        TELAPSE       16.58 TCPU       15.42
 CHARGE NORMALIZATION FACTOR   1.00000000
 TOTAL ATOMIC CHARGES:
   6.0000000   6.0000000   6.0000000   6.0000000   6.0000000   6.0000000
   6.0000000   6.0000000   6.0000000   6.0000000   6.0000000   6.0000000
   6.0000000   6.0000000   6.0000000   6.0000000   6.0000000   6.0000000
   6.0000000   6.0000000   6.0000000   6.0000000   6.0000000   6.0000000
   6.0000000   6.0000000   6.0000000   6.0000000   6.0000000   6.0000000
   6.0000000   6.0000000
 TTTTTTTTTTTTTTTTTTTTTTTTTTTTTT MOQGAD      TELAPSE       16.59 TCPU       15.44
 TTTTTTTTTTTTTTTTTTTTTTTTTTTTTT SHELLX2     TELAPSE       16.68 TCPU       15.52
 TTTTTTTTTTTTTTTTTTTTTTTTTTTTTT MONMO3      TELAPSE       17.12 TCPU       15.96
 NUMERICALLY INTEGRATED DENSITY    192.0000344967
 TTTTTTTTTTTTTTTTTTTTTTTTTTTTTT NUMDFT      TELAPSE       17.33 TCPU       16.18
 CYC  18 ETOT(AU) -1.217616608973E+03 DETOT -1.45E-07 tst  5.53E-07 PX  1.72E-05
 TTTTTTTTTTTTTTTTTTTTTTTTTTTTTT FDIK        TELAPSE       17.34 TCPU       16.19
 INSULATING STATE - LEVEL SHIFTER    1.00 au
 TOP OF VALENCE BANDS -    BAND     96; K    1; EIG -1.1780939E+00 AU
 BOTTOM OF VIRTUAL BANDS - BAND     97; K    1; EIG -1.2387098E-01 AU
 TTTTTTTTTTTTTTTTTTTTTTTTTTTTTT PDIG        TELAPSE       17.39 TCPU       16.23
 CHARGE NORMALIZATION FACTOR   1.00000000
 TOTAL ATOMIC CHARGES:
   6.0000000   6.0000000   6.0000000   6.0000000   6.0000000   6.0000000
   6.0000000   6.0000000   6.0000000   6.0000000   6.0000000   6.0000000
   6.0000000   6.0000000   6.0000000   6.0000000   6.0000000   6.0000000
   6.0000000   6.0000000   6.0000000   6.0000000   6.0000000   6.0000000
   6.0000000   6.0000000   6.0000000   6.0000000   6.0000000   6.0000000
   6.0000000   6.0000000
 TTTTTTTTTTTTTTTTTTTTTTTTTTTTTT MOQGAD      TELAPSE       17.40 TCPU       16.24
 TTTTTTTTTTTTTTTTTTTTTTTTTTTTTT SHELLX2     TELAPSE       17.48 TCPU       16.32
 TTTTTTTTTTTTTTTTTTTTTTTTTTTTTT MONMO3      TELAPSE       17.93 TCPU       16.77
 NUMERICALLY INTEGRATED DENSITY    192.0000344942
 TTTTTTTTTTTTTTTTTTTTTTTTTTTTTT NUMDFT      TELAPSE       18.14 TCPU       16.98
 CYC  19 ETOT(AU) -1.217616609045E+03 DETOT -7.23E-08 tst  3.99E-07 PX  1.48E-05
 TTTTTTTTTTTTTTTTTTTTTTTTTTTTTT FDIK        TELAPSE       18.15 TCPU       16.99
 INSULATING STATE - LEVEL SHIFTER    1.00 au
 TOP OF VALENCE BANDS -    BAND     96; K    1; EIG -1.1780956E+00 AU
 BOTTOM OF VIRTUAL BANDS - BAND     97; K    1; EIG -1.2386828E-01 AU
 TTTTTTTTTTTTTTTTTTTTTTTTTTTTTT PDIG        TELAPSE       18.19 TCPU       17.03
 CHARGE NORMALIZATION FACTOR   1.00000000
 TOTAL ATOMIC CHARGES:
   6.0000000   6.0000000   6.0000000   6.0000000   6.0000000   6.0000000
   6.0000000   6.0000000   6.0000000   6.0000000   6.0000000   6.0000000
   6.0000000   6.0000000   6.0000000   6.0000000   6.0000000   6.0000000
   6.0000000   6.0000000   6.0000000   6.0000000   6.0000000   6.0000000
   6.0000000   6.0000000   6.0000000   6.0000000   6.0000000   6.0000000
   6.0000000   6.0000000
 TTTTTTTTTTTTTTTTTTTTTTTTTTTTTT MOQGAD      TELAPSE       18.20 TCPU       17.05
 TTTTTTTTTTTTTTTTTTTTTTTTTTTTTT SHELLX2     TELAPSE       18.29 TCPU       17.13
 TTTTTTTTTTTTTTTTTTTTTTTTTTTTTT MONMO3      TELAPSE       18.73 TCPU       17.57
 NUMERICALLY INTEGRATED DENSITY    192.0000344921
 TTTTTTTTTTTTTTTTTTTTTTTTTTTTTT NUMDFT      TELAPSE       18.97 TCPU       17.80
 CYC  20 ETOT(AU) -1.217616609081E+03 DETOT -3.64E-08 tst  3.22E-07 PX  1.27E-05
 TTTTTTTTTTTTTTTTTTTTTTTTTTTTTT FDIK        TELAPSE       18.97 TCPU       17.81
 INSULATING STATE - LEVEL SHIFTER    1.00 au
 TOP OF VALENCE BANDS -    BAND     96; K    1; EIG -1.1780972E+00 AU
 BOTTOM OF VIRTUAL BANDS - BAND     97; K    1; EIG -1.2386590E-01 AU
 TTTTTTTTTTTTTTTTTTTTTTTTTTTTTT PDIG        TELAPSE       19.02 TCPU       17.85
 CHARGE NORMALIZATION FACTOR   1.00000000
 TOTAL ATOMIC CHARGES:
   6.0000000   6.0000000   6.0000000   6.0000000   6.0000000   6.0000000
   6.0000000   6.0000000   6.0000000   6.0000000   6.0000000   6.0000000
   6.0000000   6.0000000   6.0000000   6.0000000   6.0000000   6.0000000
   6.0000000   6.0000000   6.0000000   6.0000000   6.0000000   6.0000000
   6.0000000   6.0000000   6.0000000   6.0000000   6.0000000   6.0000000
   6.0000000   6.0000000
 TTTTTTTTTTTTTTTTTTTTTTTTTTTTTT MOQGAD      TELAPSE       19.03 TCPU       17.87
 TTTTTTTTTTTTTTTTTTTTTTTTTTTTTT SHELLX2     TELAPSE       19.12 TCPU       17.96
 TTTTTTTTTTTTTTTTTTTTTTTTTTTTTT MONMO3      TELAPSE       19.56 TCPU       18.39
 NUMERICALLY INTEGRATED DENSITY    192.0000344903
 TTTTTTTTTTTTTTTTTTTTTTTTTTTTTT NUMDFT      TELAPSE       19.83 TCPU       18.67
 CYC  21 ETOT(AU) -1.217616609071E+03 DETOT  1.02E-08 tst  2.80E-07 PX  1.11E-05
 TTTTTTTTTTTTTTTTTTTTTTTTTTTTTT FDIK        TELAPSE       19.86 TCPU       18.67
 INSULATING STATE - LEVEL SHIFTER    1.00 au
 TOP OF VALENCE BANDS -    BAND     96; K    1; EIG -1.1780986E+00 AU
 BOTTOM OF VIRTUAL BANDS - BAND     97; K    1; EIG -1.2386380E-01 AU
 TTTTTTTTTTTTTTTTTTTTTTTTTTTTTT PDIG        TELAPSE       19.91 TCPU       18.72
 CHARGE NORMALIZATION FACTOR   1.00000000
 TOTAL ATOMIC CHARGES:
   6.0000000   6.0000000   6.0000000   6.0000000   6.0000000   6.0000000
   6.0000000   6.0000000   6.0000000   6.0000000   6.0000000   6.0000000
   6.0000000   6.0000000   6.0000000   6.0000000   6.0000000   6.0000000
   6.0000000   6.0000000   6.0000000   6.0000000   6.0000000   6.0000000
   6.0000000   6.0000000   6.0000000   6.0000000   6.0000000   6.0000000
   6.0000000   6.0000000
 TTTTTTTTTTTTTTTTTTTTTTTTTTTTTT MOQGAD      TELAPSE       19.92 TCPU       18.73
 TTTTTTTTTTTTTTTTTTTTTTTTTTTTTT SHELLX2     TELAPSE       20.01 TCPU       18.82
 TTTTTTTTTTTTTTTTTTTTTTTTTTTTTT MONMO3      TELAPSE       20.45 TCPU       19.26
 NUMERICALLY INTEGRATED DENSITY    192.0000344886
 TTTTTTTTTTTTTTTTTTTTTTTTTTTTTT NUMDFT      TELAPSE       20.69 TCPU       19.50
 CYC  22 ETOT(AU) -1.217616609049E+03 DETOT  2.18E-08 tst  2.43E-07 PX  9.61E-06
 TTTTTTTTTTTTTTTTTTTTTTTTTTTTTT FDIK        TELAPSE       20.69 TCPU       19.51
 INSULATING STATE - LEVEL SHIFTER    1.00 au
 TOP OF VALENCE BANDS -    BAND     96; K    1; EIG -1.1781000E+00 AU
 BOTTOM OF VIRTUAL BANDS - BAND     97; K    1; EIG -1.2386198E-01 AU
 TTTTTTTTTTTTTTTTTTTTTTTTTTTTTT PDIG        TELAPSE       20.74 TCPU       19.55
 CHARGE NORMALIZATION FACTOR   1.00000000
 TOTAL ATOMIC CHARGES:
   6.0000000   6.0000000   6.0000000   6.0000000   6.0000000   6.0000000
   6.0000000   6.0000000   6.0000000   6.0000000   6.0000000   6.0000000
   6.0000000   6.0000000   6.0000000   6.0000000   6.0000000   6.0000000
   6.0000000   6.0000000   6.0000000   6.0000000   6.0000000   6.0000000
   6.0000000   6.0000000   6.0000000   6.0000000   6.0000000   6.0000000
   6.0000000   6.0000000
 TTTTTTTTTTTTTTTTTTTTTTTTTTTTTT MOQGAD      TELAPSE       20.75 TCPU       19.56
 TTTTTTTTTTTTTTTTTTTTTTTTTTTTTT SHELLX2     TELAPSE       20.84 TCPU       19.65
 TTTTTTTTTTTTTTTTTTTTTTTTTTTTTT MONMO3      TELAPSE       21.28 TCPU       20.09
 NUMERICALLY INTEGRATED DENSITY    192.0000344872
 TTTTTTTTTTTTTTTTTTTTTTTTTTTTTT NUMDFT      TELAPSE       21.51 TCPU       20.33
 CYC  23 ETOT(AU) -1.217616609010E+03 DETOT  3.97E-08 tst  2.11E-07 PX  8.36E-06
 TTTTTTTTTTTTTTTTTTTTTTTTTTTTTT FDIK        TELAPSE       21.52 TCPU       20.33
 INSULATING STATE - LEVEL SHIFTER    1.00 au
 TOP OF VALENCE BANDS -    BAND     96; K    1; EIG -1.1781013E+00 AU
 BOTTOM OF VIRTUAL BANDS - BAND     97; K    1; EIG -1.2386034E-01 AU
 TTTTTTTTTTTTTTTTTTTTTTTTTTTTTT PDIG        TELAPSE       21.57 TCPU       20.37
 CHARGE NORMALIZATION FACTOR   1.00000000
 TOTAL ATOMIC CHARGES:
   6.0000000   6.0000000   6.0000000   6.0000000   6.0000000   6.0000000
   6.0000000   6.0000000   6.0000000   6.0000000   6.0000000   6.0000000
   6.0000000   6.0000000   6.0000000   6.0000000   6.0000000   6.0000000
   6.0000000   6.0000000   6.0000000   6.0000000   6.0000000   6.0000000
   6.0000000   6.0000000   6.0000000   6.0000000   6.0000000   6.0000000
   6.0000000   6.0000000
 TTTTTTTTTTTTTTTTTTTTTTTTTTTTTT MOQGAD      TELAPSE       21.58 TCPU       20.39
 TTTTTTTTTTTTTTTTTTTTTTTTTTTTTT SHELLX2     TELAPSE       21.67 TCPU       20.47
 TTTTTTTTTTTTTTTTTTTTTTTTTTTTTT MONMO3      TELAPSE       22.11 TCPU       20.91
 NUMERICALLY INTEGRATED DENSITY    192.0000344860
 TTTTTTTTTTTTTTTTTTTTTTTTTTTTTT NUMDFT      TELAPSE       22.41 TCPU       21.19
 CYC  24 ETOT(AU) -1.217616608969E+03 DETOT  4.06E-08 tst  1.83E-07 PX  7.28E-06
 TTTTTTTTTTTTTTTTTTTTTTTTTTTTTT FDIK        TELAPSE       22.42 TCPU       21.21
 INSULATING STATE - LEVEL SHIFTER    1.00 au
 TOP OF VALENCE BANDS -    BAND     96; K    1; EIG -1.1781025E+00 AU
 BOTTOM OF VIRTUAL BANDS - BAND     97; K    1; EIG -1.2385887E-01 AU
 TTTTTTTTTTTTTTTTTTTTTTTTTTTTTT PDIG        TELAPSE       22.47 TCPU       21.25
 CHARGE NORMALIZATION FACTOR   1.00000000
 TOTAL ATOMIC CHARGES:
   6.0000000   6.0000000   6.0000000   6.0000000   6.0000000   6.0000000
   6.0000000   6.0000000   6.0000000   6.0000000   6.0000000   6.0000000
   6.0000000   6.0000000   6.0000000   6.0000000   6.0000000   6.0000000
   6.0000000   6.0000000   6.0000000   6.0000000   6.0000000   6.0000000
   6.0000000   6.0000000   6.0000000   6.0000000   6.0000000   6.0000000
   6.0000000   6.0000000
 TTTTTTTTTTTTTTTTTTTTTTTTTTTTTT MOQGAD      TELAPSE       22.48 TCPU       21.26
 TTTTTTTTTTTTTTTTTTTTTTTTTTTTTT SHELLX2     TELAPSE       22.57 TCPU       21.35
 TTTTTTTTTTTTTTTTTTTTTTTTTTTTTT MONMO3      TELAPSE       23.01 TCPU       21.79
 NUMERICALLY INTEGRATED DENSITY    192.0000344849
 TTTTTTTTTTTTTTTTTTTTTTTTTTTTTT NUMDFT      TELAPSE       23.29 TCPU       22.07
 CYC  25 ETOT(AU) -1.217616608924E+03 DETOT  4.53E-08 tst  1.58E-07 PX  6.41E-06
 TTTTTTTTTTTTTTTTTTTTTTTTTTTTTT FDIK        TELAPSE       23.30 TCPU       22.08
 INSULATING STATE - LEVEL SHIFTER    1.00 au
 TOP OF VALENCE BANDS -    BAND     96; K    1; EIG -1.1781036E+00 AU
 BOTTOM OF VIRTUAL BANDS - BAND     97; K    1; EIG -1.2385755E-01 AU
 TTTTTTTTTTTTTTTTTTTTTTTTTTTTTT PDIG        TELAPSE       23.34 TCPU       22.12
 CHARGE NORMALIZATION FACTOR   1.00000000
 TOTAL ATOMIC CHARGES:
   6.0000000   6.0000000   6.0000000   6.0000000   6.0000000   6.0000000
   6.0000000   6.0000000   6.0000000   6.0000000   6.0000000   6.0000000
   6.0000000   6.0000000   6.0000000   6.0000000   6.0000000   6.0000000
   6.0000000   6.0000000   6.0000000   6.0000000   6.0000000   6.0000000
   6.0000000   6.0000000   6.0000000   6.0000000   6.0000000   6.0000000
   6.0000000   6.0000000
 TTTTTTTTTTTTTTTTTTTTTTTTTTTTTT MOQGAD      TELAPSE       23.35 TCPU       22.13
 TTTTTTTTTTTTTTTTTTTTTTTTTTTTTT SHELLX2     TELAPSE       23.44 TCPU       22.22
 TTTTTTTTTTTTTTTTTTTTTTTTTTTTTT MONMO3      TELAPSE       23.88 TCPU       22.66
 NUMERICALLY INTEGRATED DENSITY    192.0000344840
 TTTTTTTTTTTTTTTTTTTTTTTTTTTTTT NUMDFT      TELAPSE       24.17 TCPU       22.95
 CYC  26 ETOT(AU) -1.217616608882E+03 DETOT  4.17E-08 tst  1.37E-07 PX  5.69E-06
 TTTTTTTTTTTTTTTTTTTTTTTTTTTTTT FDIK        TELAPSE       24.18 TCPU       22.96
 INSULATING STATE - LEVEL SHIFTER    1.00 au
 TOP OF VALENCE BANDS -    BAND     96; K    1; EIG -1.1781046E+00 AU
 BOTTOM OF VIRTUAL BANDS - BAND     97; K    1; EIG -1.2385635E-01 AU
 TTTTTTTTTTTTTTTTTTTTTTTTTTTTTT PDIG        TELAPSE       24.22 TCPU       23.00
 CHARGE NORMALIZATION FACTOR   1.00000000
 TOTAL ATOMIC CHARGES:
   6.0000000   6.0000000   6.0000000   6.0000000   6.0000000   6.0000000
   6.0000000   6.0000000   6.0000000   6.0000000   6.0000000   6.0000000
   6.0000000   6.0000000   6.0000000   6.0000000   6.0000000   6.0000000
   6.0000000   6.0000000   6.0000000   6.0000000   6.0000000   6.0000000
   6.0000000   6.0000000   6.0000000   6.0000000   6.0000000   6.0000000
   6.0000000   6.0000000
 TTTTTTTTTTTTTTTTTTTTTTTTTTTTTT MOQGAD      TELAPSE       24.24 TCPU       23.02
 TTTTTTTTTTTTTTTTTTTTTTTTTTTTTT SHELLX2     TELAPSE       24.33 TCPU       23.11
 TTTTTTTTTTTTTTTTTTTTTTTTTTTTTT MONMO3      TELAPSE       24.76 TCPU       23.54
 NUMERICALLY INTEGRATED DENSITY    192.0000344832
 TTTTTTTTTTTTTTTTTTTTTTTTTTTTTT NUMDFT      TELAPSE       25.05 TCPU       23.83
 CYC  27 ETOT(AU) -1.217616608844E+03 DETOT  3.83E-08 tst  1.19E-07 PX  5.11E-06
 TTTTTTTTTTTTTTTTTTTTTTTTTTTTTT FDIK        TELAPSE       25.18 TCPU       23.83
 INSULATING STATE - LEVEL SHIFTER    1.00 au
 TOP OF VALENCE BANDS -    BAND     96; K    1; EIG -1.1781055E+00 AU
 BOTTOM OF VIRTUAL BANDS - BAND     97; K    1; EIG -1.2385526E-01 AU
 TTTTTTTTTTTTTTTTTTTTTTTTTTTTTT PDIG        TELAPSE       25.22 TCPU       23.88
 CHARGE NORMALIZATION FACTOR   1.00000000
 TOTAL ATOMIC CHARGES:
   6.0000000   6.0000000   6.0000000   6.0000000   6.0000000   6.0000000
   6.0000000   6.0000000   6.0000000   6.0000000   6.0000000   6.0000000
   6.0000000   6.0000000   6.0000000   6.0000000   6.0000000   6.0000000
   6.0000000   6.0000000   6.0000000   6.0000000   6.0000000   6.0000000
   6.0000000   6.0000000   6.0000000   6.0000000   6.0000000   6.0000000
   6.0000000   6.0000000
 TTTTTTTTTTTTTTTTTTTTTTTTTTTTTT MOQGAD      TELAPSE       25.23 TCPU       23.89
 TTTTTTTTTTTTTTTTTTTTTTTTTTTTTT SHELLX2     TELAPSE       25.32 TCPU       23.98
 TTTTTTTTTTTTTTTTTTTTTTTTTTTTTT MONMO3      TELAPSE       25.76 TCPU       24.42
 NUMERICALLY INTEGRATED DENSITY    192.0000344825
 TTTTTTTTTTTTTTTTTTTTTTTTTTTTTT NUMDFT      TELAPSE       26.00 TCPU       24.66
 CYC  28 ETOT(AU) -1.217616608800E+03 DETOT  4.33E-08 tst  1.03E-07 PX  4.58E-06
 TTTTTTTTTTTTTTTTTTTTTTTTTTTTTT FDIK        TELAPSE       26.01 TCPU       24.67
 INSULATING STATE - LEVEL SHIFTER    1.00 au
 TOP OF VALENCE BANDS -    BAND     96; K    1; EIG -1.1781064E+00 AU
 BOTTOM OF VIRTUAL BANDS - BAND     97; K    1; EIG -1.2385428E-01 AU
 TTTTTTTTTTTTTTTTTTTTTTTTTTTTTT PDIG        TELAPSE       26.05 TCPU       24.71
 CHARGE NORMALIZATION FACTOR   1.00000000
 TOTAL ATOMIC CHARGES:
   6.0000000   6.0000000   6.0000000   6.0000000   6.0000000   6.0000000
   6.0000000   6.0000000   6.0000000   6.0000000   6.0000000   6.0000000
   6.0000000   6.0000000   6.0000000   6.0000000   6.0000000   6.0000000
   6.0000000   6.0000000   6.0000000   6.0000000   6.0000000   6.0000000
   6.0000000   6.0000000   6.0000000   6.0000000   6.0000000   6.0000000
   6.0000000   6.0000000
 TTTTTTTTTTTTTTTTTTTTTTTTTTTTTT MOQGAD      TELAPSE       26.06 TCPU       24.72
 TTTTTTTTTTTTTTTTTTTTTTTTTTTTTT SHELLX2     TELAPSE       26.15 TCPU       24.81
 TTTTTTTTTTTTTTTTTTTTTTTTTTTTTT MONMO3      TELAPSE       26.59 TCPU       25.25
 NUMERICALLY INTEGRATED DENSITY    192.0000344818
 TTTTTTTTTTTTTTTTTTTTTTTTTTTTTT NUMDFT      TELAPSE       26.81 TCPU       25.47
 CYC  29 ETOT(AU) -1.217616608761E+03 DETOT  3.98E-08 tst  8.91E-08 PX  4.15E-06
 TTTTTTTTTTTTTTTTTTTTTTTTTTTTTT FDIK        TELAPSE       26.81 TCPU       25.47
 INSULATING STATE - LEVEL SHIFTER    1.00 au
 TOP OF VALENCE BANDS -    BAND     96; K    1; EIG -1.1781072E+00 AU
 BOTTOM OF VIRTUAL BANDS - BAND     97; K    1; EIG -1.2385340E-01 AU
 TTTTTTTTTTTTTTTTTTTTTTTTTTTTTT PDIG        TELAPSE       26.86 TCPU       25.51
 CHARGE NORMALIZATION FACTOR   1.00000000
 TOTAL ATOMIC CHARGES:
   6.0000000   6.0000000   6.0000000   6.0000000   6.0000000   6.0000000
   6.0000000   6.0000000   6.0000000   6.0000000   6.0000000   6.0000000
   6.0000000   6.0000000   6.0000000   6.0000000   6.0000000   6.0000000
   6.0000000   6.0000000   6.0000000   6.0000000   6.0000000   6.0000000
   6.0000000   6.0000000   6.0000000   6.0000000   6.0000000   6.0000000
   6.0000000   6.0000000
 TTTTTTTTTTTTTTTTTTTTTTTTTTTTTT MOQGAD      TELAPSE       26.87 TCPU       25.53
 TTTTTTTTTTTTTTTTTTTTTTTTTTTTTT SHELLX2     TELAPSE       26.95 TCPU       25.61
 TTTTTTTTTTTTTTTTTTTTTTTTTTTTTT MONMO3      TELAPSE       27.40 TCPU       26.05
 NUMERICALLY INTEGRATED DENSITY    192.0000344813
 TTTTTTTTTTTTTTTTTTTTTTTTTTTTTT NUMDFT      TELAPSE       27.61 TCPU       26.27
 CYC  30 ETOT(AU) -1.217616608719E+03 DETOT  4.19E-08 tst  7.70E-08 PX  3.73E-06
 TTTTTTTTTTTTTTTTTTTTTTTTTTTTTT FDIK        TELAPSE       27.62 TCPU       26.27
 INSULATING STATE - LEVEL SHIFTER    1.00 au
 TOP OF VALENCE BANDS -    BAND     96; K    1; EIG -1.1781079E+00 AU
 BOTTOM OF VIRTUAL BANDS - BAND     97; K    1; EIG -1.2385260E-01 AU
 TTTTTTTTTTTTTTTTTTTTTTTTTTTTTT PDIG        TELAPSE       27.66 TCPU       26.31
 CHARGE NORMALIZATION FACTOR   1.00000000
 TOTAL ATOMIC CHARGES:
   6.0000000   6.0000000   6.0000000   6.0000000   6.0000000   6.0000000
   6.0000000   6.0000000   6.0000000   6.0000000   6.0000000   6.0000000
   6.0000000   6.0000000   6.0000000   6.0000000   6.0000000   6.0000000
   6.0000000   6.0000000   6.0000000   6.0000000   6.0000000   6.0000000
   6.0000000   6.0000000   6.0000000   6.0000000   6.0000000   6.0000000
   6.0000000   6.0000000
 TTTTTTTTTTTTTTTTTTTTTTTTTTTTTT MOQGAD      TELAPSE       27.67 TCPU       26.33
 TTTTTTTTTTTTTTTTTTTTTTTTTTTTTT SHELLX2     TELAPSE       27.76 TCPU       26.41
 TTTTTTTTTTTTTTTTTTTTTTTTTTTTTT MONMO3      TELAPSE       28.20 TCPU       26.85
 NUMERICALLY INTEGRATED DENSITY    192.0000344808
 TTTTTTTTTTTTTTTTTTTTTTTTTTTTTT NUMDFT      TELAPSE       28.42 TCPU       27.07
 CYC  31 ETOT(AU) -1.217616608687E+03 DETOT  3.20E-08 tst  6.66E-08 PX  3.38E-06
 TTTTTTTTTTTTTTTTTTTTTTTTTTTTTT FDIK        TELAPSE       28.42 TCPU       27.07
 INSULATING STATE - LEVEL SHIFTER    1.00 au
 TOP OF VALENCE BANDS -    BAND     96; K    1; EIG -1.1781085E+00 AU
 BOTTOM OF VIRTUAL BANDS - BAND     97; K    1; EIG -1.2385188E-01 AU
 TTTTTTTTTTTTTTTTTTTTTTTTTTTTTT PDIG        TELAPSE       28.47 TCPU       27.12
 CHARGE NORMALIZATION FACTOR   1.00000000
 TOTAL ATOMIC CHARGES:
   6.0000000   6.0000000   6.0000000   6.0000000   6.0000000   6.0000000
   6.0000000   6.0000000   6.0000000   6.0000000   6.0000000   6.0000000
   6.0000000   6.0000000   6.0000000   6.0000000   6.0000000   6.0000000
   6.0000000   6.0000000   6.0000000   6.0000000   6.0000000   6.0000000
   6.0000000   6.0000000   6.0000000   6.0000000   6.0000000   6.0000000
   6.0000000   6.0000000
 TTTTTTTTTTTTTTTTTTTTTTTTTTTTTT MOQGAD      TELAPSE       28.48 TCPU       27.13
 TTTTTTTTTTTTTTTTTTTTTTTTTTTTTT SHELLX2     TELAPSE       28.56 TCPU       27.21
 TTTTTTTTTTTTTTTTTTTTTTTTTTTTTT MONMO3      TELAPSE       29.01 TCPU       27.66
 NUMERICALLY INTEGRATED DENSITY    192.0000344804
 TTTTTTTTTTTTTTTTTTTTTTTTTTTTTT NUMDFT      TELAPSE       29.22 TCPU       27.87
 CYC  32 ETOT(AU) -1.217616608650E+03 DETOT  3.63E-08 tst  5.76E-08 PX  3.04E-06
 TTTTTTTTTTTTTTTTTTTTTTTTTTTTTT FDIK        TELAPSE       29.23 TCPU       27.88
 INSULATING STATE - LEVEL SHIFTER    1.00 au
 TOP OF VALENCE BANDS -    BAND     96; K    1; EIG -1.1781092E+00 AU
 BOTTOM OF VIRTUAL BANDS - BAND     97; K    1; EIG -1.2385122E-01 AU
 TTTTTTTTTTTTTTTTTTTTTTTTTTTTTT PDIG        TELAPSE       29.27 TCPU       27.92
 CHARGE NORMALIZATION FACTOR   1.00000000
 TOTAL ATOMIC CHARGES:
   6.0000000   6.0000000   6.0000000   6.0000000   6.0000000   6.0000000
   6.0000000   6.0000000   6.0000000   6.0000000   6.0000000   6.0000000
   6.0000000   6.0000000   6.0000000   6.0000000   6.0000000   6.0000000
   6.0000000   6.0000000   6.0000000   6.0000000   6.0000000   6.0000000
   6.0000000   6.0000000   6.0000000   6.0000000   6.0000000   6.0000000
   6.0000000   6.0000000
 TTTTTTTTTTTTTTTTTTTTTTTTTTTTTT MOQGAD      TELAPSE       29.28 TCPU       27.94
 TTTTTTTTTTTTTTTTTTTTTTTTTTTTTT SHELLX2     TELAPSE       29.37 TCPU       28.02
 TTTTTTTTTTTTTTTTTTTTTTTTTTTTTT MONMO3      TELAPSE       29.81 TCPU       28.46
 NUMERICALLY INTEGRATED DENSITY    192.0000344800
 TTTTTTTTTTTTTTTTTTTTTTTTTTTTTT NUMDFT      TELAPSE       30.03 TCPU       28.68
 CYC  33 ETOT(AU) -1.217616608615E+03 DETOT  3.51E-08 tst  4.98E-08 PX  2.78E-06
 TTTTTTTTTTTTTTTTTTTTTTTTTTTTTT FDIK        TELAPSE       30.03 TCPU       28.69
 INSULATING STATE - LEVEL SHIFTER    1.00 au
 TOP OF VALENCE BANDS -    BAND     96; K    1; EIG -1.1781097E+00 AU
 BOTTOM OF VIRTUAL BANDS - BAND     97; K    1; EIG -1.2385062E-01 AU
 TTTTTTTTTTTTTTTTTTTTTTTTTTTTTT PDIG        TELAPSE       30.08 TCPU       28.73
 CHARGE NORMALIZATION FACTOR   1.00000000
 TOTAL ATOMIC CHARGES:
   6.0000000   6.0000000   6.0000000   6.0000000   6.0000000   6.0000000
   6.0000000   6.0000000   6.0000000   6.0000000   6.0000000   6.0000000
   6.0000000   6.0000000   6.0000000   6.0000000   6.0000000   6.0000000
   6.0000000   6.0000000   6.0000000   6.0000000   6.0000000   6.0000000
   6.0000000   6.0000000   6.0000000   6.0000000   6.0000000   6.0000000
   6.0000000   6.0000000
 TTTTTTTTTTTTTTTTTTTTTTTTTTTTTT MOQGAD      TELAPSE       30.09 TCPU       28.74
 TTTTTTTTTTTTTTTTTTTTTTTTTTTTTT SHELLX2     TELAPSE       30.39 TCPU       28.82
 TTTTTTTTTTTTTTTTTTTTTTTTTTTTTT MONMO3      TELAPSE       30.62 TCPU       29.05
 NUMERICALLY INTEGRATED DENSITY    192.0000344796
 TTTTTTTTTTTTTTTTTTTTTTTTTTTTTT NUMDFT      TELAPSE       30.83 TCPU       29.27
 CYC  34 ETOT(AU) -1.217616608587E+03 DETOT  2.85E-08 tst  4.30E-08 PX  2.50E-06
 TTTTTTTTTTTTTTTTTTTTTTTTTTTTTT FDIK        TELAPSE       30.84 TCPU       29.27
 INSULATING STATE - LEVEL SHIFTER    1.00 au
 TOP OF VALENCE BANDS -    BAND     96; K    1; EIG -1.1781103E+00 AU
 BOTTOM OF VIRTUAL BANDS - BAND     97; K    1; EIG -1.2385008E-01 AU
 TTTTTTTTTTTTTTTTTTTTTTTTTTTTTT PDIG        TELAPSE       30.88 TCPU       29.32
 CHARGE NORMALIZATION FACTOR   1.00000000
 TOTAL ATOMIC CHARGES:
   6.0000000   6.0000000   6.0000000   6.0000000   6.0000000   6.0000000
   6.0000000   6.0000000   6.0000000   6.0000000   6.0000000   6.0000000
   6.0000000   6.0000000   6.0000000   6.0000000   6.0000000   6.0000000
   6.0000000   6.0000000   6.0000000   6.0000000   6.0000000   6.0000000
   6.0000000   6.0000000   6.0000000   6.0000000   6.0000000   6.0000000
   6.0000000   6.0000000
 TTTTTTTTTTTTTTTTTTTTTTTTTTTTTT MOQGAD      TELAPSE       30.90 TCPU       29.33
 TTTTTTTTTTTTTTTTTTTTTTTTTTTTTT SHELLX2     TELAPSE       30.98 TCPU       29.41
 TTTTTTTTTTTTTTTTTTTTTTTTTTTTTT MONMO3      TELAPSE       31.42 TCPU       29.86
 NUMERICALLY INTEGRATED DENSITY    192.0000344793
 TTTTTTTTTTTTTTTTTTTTTTTTTTTTTT NUMDFT      TELAPSE       31.64 TCPU       30.07
 CYC  35 ETOT(AU) -1.217616608560E+03 DETOT  2.74E-08 tst  3.72E-08 PX  2.26E-06
 TTTTTTTTTTTTTTTTTTTTTTTTTTTTTT FDIK        TELAPSE       31.64 TCPU       30.08
 INSULATING STATE - LEVEL SHIFTER    1.00 au
 TOP OF VALENCE BANDS -    BAND     96; K    1; EIG -1.1781107E+00 AU
 BOTTOM OF VIRTUAL BANDS - BAND     97; K    1; EIG -1.2384957E-01 AU
 TTTTTTTTTTTTTTTTTTTTTTTTTTTTTT PDIG        TELAPSE       31.69 TCPU       30.12
 CHARGE NORMALIZATION FACTOR   1.00000000
 TOTAL ATOMIC CHARGES:
   6.0000000   6.0000000   6.0000000   6.0000000   6.0000000   6.0000000
   6.0000000   6.0000000   6.0000000   6.0000000   6.0000000   6.0000000
   6.0000000   6.0000000   6.0000000   6.0000000   6.0000000   6.0000000
   6.0000000   6.0000000   6.0000000   6.0000000   6.0000000   6.0000000
   6.0000000   6.0000000   6.0000000   6.0000000   6.0000000   6.0000000
   6.0000000   6.0000000
 TTTTTTTTTTTTTTTTTTTTTTTTTTTTTT MOQGAD      TELAPSE       31.70 TCPU       30.13
 TTTTTTTTTTTTTTTTTTTTTTTTTTTTTT SHELLX2     TELAPSE       31.78 TCPU       30.22
 TTTTTTTTTTTTTTTTTTTTTTTTTTTTTT MONMO3      TELAPSE       32.22 TCPU       30.66
 NUMERICALLY INTEGRATED DENSITY    192.0000344790
 TTTTTTTTTTTTTTTTTTTTTTTTTTTTTT NUMDFT      TELAPSE       32.45 TCPU       30.87
 CYC  36 ETOT(AU) -1.217616608537E+03 DETOT  2.27E-08 tst  3.21E-08 PX  2.03E-06
 TTTTTTTTTTTTTTTTTTTTTTTTTTTTTT FDIK        TELAPSE       32.46 TCPU       30.88
 INSULATING STATE - LEVEL SHIFTER    1.00 au
 TOP OF VALENCE BANDS -    BAND     96; K    1; EIG -1.1781112E+00 AU
 BOTTOM OF VIRTUAL BANDS - BAND     97; K    1; EIG -1.2384911E-01 AU
 TTTTTTTTTTTTTTTTTTTTTTTTTTTTTT PDIG        TELAPSE       32.50 TCPU       30.92
 CHARGE NORMALIZATION FACTOR   1.00000000
 TOTAL ATOMIC CHARGES:
   6.0000000   6.0000000   6.0000000   6.0000000   6.0000000   6.0000000
   6.0000000   6.0000000   6.0000000   6.0000000   6.0000000   6.0000000
   6.0000000   6.0000000   6.0000000   6.0000000   6.0000000   6.0000000
   6.0000000   6.0000000   6.0000000   6.0000000   6.0000000   6.0000000
   6.0000000   6.0000000   6.0000000   6.0000000   6.0000000   6.0000000
   6.0000000   6.0000000
 TTTTTTTTTTTTTTTTTTTTTTTTTTTTTT MOQGAD      TELAPSE       32.51 TCPU       30.94
 TTTTTTTTTTTTTTTTTTTTTTTTTTTTTT SHELLX2     TELAPSE       32.60 TCPU       31.02
 TTTTTTTTTTTTTTTTTTTTTTTTTTTTTT MONMO3      TELAPSE       33.04 TCPU       31.46
 NUMERICALLY INTEGRATED DENSITY    192.0000344788
 TTTTTTTTTTTTTTTTTTTTTTTTTTTTTT NUMDFT      TELAPSE       33.26 TCPU       31.67
 CYC  37 ETOT(AU) -1.217616608517E+03 DETOT  2.02E-08 tst  2.77E-08 PX  1.86E-06
 TTTTTTTTTTTTTTTTTTTTTTTTTTTTTT FDIK        TELAPSE       33.26 TCPU       31.68
 INSULATING STATE - LEVEL SHIFTER    1.00 au
 TOP OF VALENCE BANDS -    BAND     96; K    1; EIG -1.1781116E+00 AU
 BOTTOM OF VIRTUAL BANDS - BAND     97; K    1; EIG -1.2384868E-01 AU
 TTTTTTTTTTTTTTTTTTTTTTTTTTTTTT PDIG        TELAPSE       33.31 TCPU       31.73
 CHARGE NORMALIZATION FACTOR   1.00000000
 TOTAL ATOMIC CHARGES:
   6.0000000   6.0000000   6.0000000   6.0000000   6.0000000   6.0000000
   6.0000000   6.0000000   6.0000000   6.0000000   6.0000000   6.0000000
   6.0000000   6.0000000   6.0000000   6.0000000   6.0000000   6.0000000
   6.0000000   6.0000000   6.0000000   6.0000000   6.0000000   6.0000000
   6.0000000   6.0000000   6.0000000   6.0000000   6.0000000   6.0000000
   6.0000000   6.0000000
 TTTTTTTTTTTTTTTTTTTTTTTTTTTTTT MOQGAD      TELAPSE       33.32 TCPU       31.74
 TTTTTTTTTTTTTTTTTTTTTTTTTTTTTT SHELLX2     TELAPSE       33.40 TCPU       31.82
 TTTTTTTTTTTTTTTTTTTTTTTTTTTTTT MONMO3      TELAPSE       33.85 TCPU       32.27
 NUMERICALLY INTEGRATED DENSITY    192.0000344786
 TTTTTTTTTTTTTTTTTTTTTTTTTTTTTT NUMDFT      TELAPSE       34.06 TCPU       32.48
 CYC  38 ETOT(AU) -1.217616608497E+03 DETOT  1.99E-08 tst  2.39E-08 PX  1.69E-06
 TTTTTTTTTTTTTTTTTTTTTTTTTTTTTT FDIK        TELAPSE       34.07 TCPU       32.49
 INSULATING STATE - LEVEL SHIFTER    1.00 au
 TOP OF VALENCE BANDS -    BAND     96; K    1; EIG -1.1781120E+00 AU
 BOTTOM OF VIRTUAL BANDS - BAND     97; K    1; EIG -1.2384829E-01 AU
 TTTTTTTTTTTTTTTTTTTTTTTTTTTTTT PDIG        TELAPSE       34.11 TCPU       32.53
 CHARGE NORMALIZATION FACTOR   1.00000000
 TOTAL ATOMIC CHARGES:
   6.0000000   6.0000000   6.0000000   6.0000000   6.0000000   6.0000000
   6.0000000   6.0000000   6.0000000   6.0000000   6.0000000   6.0000000
   6.0000000   6.0000000   6.0000000   6.0000000   6.0000000   6.0000000
   6.0000000   6.0000000   6.0000000   6.0000000   6.0000000   6.0000000
   6.0000000   6.0000000   6.0000000   6.0000000   6.0000000   6.0000000
   6.0000000   6.0000000
[...]
   0.000000000000E+00   0.500000000000E+03   0.000000000000E+00
   0.000000000000E+00   0.000000000000E+00   0.500000000000E+03


 CARTESIAN COORDINATES - PRIMITIVE CELL
 *******************************************************************************
 *      ATOM          X(ANGSTROM)         Y(ANGSTROM)         Z(ANGSTROM)
 *******************************************************************************
    1     6 C    -1.425365129821E+00  3.196667270890E+00  8.976960622962E-17
    2     6 C     1.425365129821E+00  3.196667270890E+00 -9.002359613883E-17
    3     6 C     7.088511957953E-01  1.223311603353E+00  2.953335463824E+00
    4     6 C    -7.088511957953E-01  1.223311603353E+00 -2.953335463824E+00
    5     6 C     7.088511957953E-01  1.223311603353E+00 -2.953335463824E+00
    6     6 C    -7.088511957953E-01  1.223311603353E+00  2.953335463824E+00
    7     6 C    -1.425365129821E+00 -2.260385104443E+00  2.260385104443E+00
    8     6 C     1.425365129821E+00 -2.260385104443E+00 -2.260385104443E+00
    9     6 C    -1.425365129821E+00 -2.260385104443E+00 -2.260385104443E+00
   10     6 C     1.425365129821E+00 -2.260385104443E+00  2.260385104443E+00
   11     6 C     7.088511957953E-01 -2.953335463824E+00 -1.223311603353E+00
   12     6 C    -7.088511957953E-01 -2.953335463824E+00  1.223311603353E+00
   13     6 C     7.088511957953E-01 -2.953335463824E+00  1.223311603353E+00
   14     6 C    -7.088511957953E-01 -2.953335463824E+00 -1.223311603353E+00
   15     6 C    -1.425365129821E+00 -4.755567059494E-16 -3.196667270890E+00
   16     6 C     1.425365129821E+00 -4.753027160402E-16  3.196667270890E+00
   17     6 C    -1.425365129821E+00 -4.753027160402E-16  3.196667270890E+00
   18     6 C     1.425365129821E+00 -4.755567059494E-16 -3.196667270890E+00
   19     6 C     7.088511957953E-01  2.953335463824E+00 -1.223311603353E+00
   20     6 C    -7.088511957953E-01  2.953335463824E+00  1.223311603353E+00
   21     6 C     7.088511957953E-01  2.953335463824E+00  1.223311603353E+00
   22     6 C    -7.088511957953E-01  2.953335463824E+00 -1.223311603353E+00
   23     6 C    -1.425365129821E+00  2.260385104443E+00  2.260385104443E+00
   24     6 C     1.425365129821E+00  2.260385104443E+00 -2.260385104443E+00
   25     6 C    -1.425365129821E+00  2.260385104443E+00 -2.260385104443E+00
   26     6 C     1.425365129821E+00  2.260385104443E+00  2.260385104443E+00
   27     6 C     7.088511957953E-01 -1.223311603353E+00  2.953335463824E+00
   28     6 C    -7.088511957953E-01 -1.223311603353E+00 -2.953335463824E+00
   29     6 C     7.088511957953E-01 -1.223311603353E+00 -2.953335463824E+00
   30     6 C    -7.088511957953E-01 -1.223311603353E+00  2.953335463824E+00
   31     6 C    -1.425365129821E+00 -3.196667270890E+00  1.065648524929E-15
   32     6 C     1.425365129821E+00 -3.196667270890E+00 -1.065394535020E-15

 ****   64 SYMMOPS - TRANSLATORS IN FRACTIONAL UNITS
 **** MATRICES AND TRANSLATORS IN THE CRYSTALLOGRAPHIC REFERENCE FRAME
   V INV                    ROTATION MATRICES                   TRANSLATORS
   1   1  1.00  0.00  0.00  0.00  1.00  0.00  0.00  0.00  1.00  0.00  0.00  0.00
   2   2 -1.00  0.00  0.00  0.00  1.00  0.00  0.00  0.00 -1.00  0.00  0.00  0.00
   3   3  1.00  0.00  0.00  0.00  1.00  0.00  0.00  0.00 -1.00  0.00  0.00  0.00
   4   4 -1.00  0.00  0.00  0.00  1.00  0.00  0.00  0.00  1.00  0.00  0.00  0.00
   5  61  1.00  0.00  0.00  0.00  0.38 -0.92  0.00  0.92  0.38 -0.50  0.00  0.00
   6   6 -1.00  0.00  0.00  0.00  0.38 -0.92  0.00 -0.92 -0.38 -0.50  0.00  0.00
   7   7  1.00  0.00  0.00  0.00  0.38 -0.92  0.00 -0.92 -0.38 -0.50  0.00  0.00
   8  64 -1.00  0.00  0.00  0.00  0.38 -0.92  0.00  0.92  0.38 -0.50  0.00  0.00
   9  57  1.00  0.00  0.00  0.00 -0.71 -0.71  0.00  0.71 -0.71  0.00  0.00  0.00
  10  10 -1.00  0.00  0.00  0.00 -0.71 -0.71  0.00 -0.71  0.71 -1.00  0.00  0.00
  11  11  1.00  0.00  0.00  0.00 -0.71 -0.71  0.00 -0.71  0.71  0.00  0.00  0.00
  12  60 -1.00  0.00  0.00  0.00 -0.71 -0.71  0.00  0.71 -0.71 -1.00  0.00  0.00
  13  53  1.00  0.00  0.00  0.00 -0.92  0.38  0.00 -0.38 -0.92 -0.50  0.00  0.00
  14  14 -1.00  0.00  0.00  0.00 -0.92  0.38  0.00  0.38  0.92 -0.50  0.00  0.00
  15  15  1.00  0.00  0.00  0.00 -0.92  0.38  0.00  0.38  0.92 -0.50  0.00  0.00
  16  56 -1.00  0.00  0.00  0.00 -0.92  0.38  0.00 -0.38 -0.92 -0.50  0.00  0.00
  17  49  1.00  0.00  0.00  0.00 -0.00  1.00  0.00 -1.00 -0.00  0.00  0.00  0.00
  18  18 -1.00  0.00  0.00  0.00 -0.00  1.00  0.00  1.00  0.00 -1.00  0.00  0.00
  19  19  1.00  0.00  0.00  0.00 -0.00  1.00  0.00  1.00  0.00  0.00  0.00  0.00
  20  52 -1.00  0.00  0.00  0.00 -0.00  1.00  0.00 -1.00 -0.00 -1.00  0.00  0.00
  21  45  1.00  0.00  0.00  0.00  0.92  0.38  0.00 -0.38  0.92 -0.50  0.00  0.00
  22  22 -1.00  0.00  0.00  0.00  0.92  0.38  0.00  0.38 -0.92 -0.50  0.00  0.00
  23  23  1.00  0.00  0.00  0.00  0.92  0.38  0.00  0.38 -0.92 -0.50  0.00  0.00
  24  48 -1.00  0.00  0.00  0.00  0.92  0.38  0.00 -0.38  0.92 -0.50  0.00  0.00
  25  41  1.00  0.00  0.00  0.00  0.71 -0.71  0.00  0.71  0.71  0.00  0.00  0.00
  26  26 -1.00  0.00  0.00  0.00  0.71 -0.71  0.00 -0.71 -0.71 -1.00  0.00  0.00
  27  27  1.00  0.00  0.00  0.00  0.71 -0.71  0.00 -0.71 -0.71  0.00  0.00  0.00
  28  44 -1.00  0.00  0.00  0.00  0.71 -0.71  0.00  0.71  0.71 -1.00  0.00  0.00
  29  37  1.00  0.00  0.00  0.00 -0.38 -0.92  0.00  0.92 -0.38 -0.50  0.00  0.00
  30  30 -1.00  0.00  0.00  0.00 -0.38 -0.92  0.00 -0.92  0.38 -0.50  0.00  0.00
  31  31  1.00  0.00  0.00  0.00 -0.38 -0.92  0.00 -0.92  0.38 -0.50  0.00  0.00
  32  40 -1.00  0.00  0.00  0.00 -0.38 -0.92  0.00  0.92 -0.38 -0.50  0.00  0.00
  33  33  1.00  0.00  0.00  0.00 -1.00 -0.00  0.00  0.00 -1.00  0.00  0.00  0.00
  34  34 -1.00  0.00  0.00  0.00 -1.00 -0.00  0.00 -0.00  1.00 -1.00  0.00  0.00
  35  35  1.00  0.00  0.00  0.00 -1.00 -0.00  0.00 -0.00  1.00  0.00  0.00  0.00
  36  36 -1.00  0.00  0.00  0.00 -1.00 -0.00  0.00  0.00 -1.00 -1.00  0.00  0.00
  37  29  1.00  0.00  0.00  0.00 -0.38  0.92  0.00 -0.92 -0.38 -0.50  0.00  0.00
  38  38 -1.00  0.00  0.00  0.00 -0.38  0.92  0.00  0.92  0.38 -0.50  0.00  0.00
  39  39  1.00  0.00  0.00  0.00 -0.38  0.92  0.00  0.92  0.38 -0.50  0.00  0.00
  40  32 -1.00  0.00  0.00  0.00 -0.38  0.92  0.00 -0.92 -0.38 -0.50  0.00  0.00
  41  25  1.00  0.00  0.00  0.00  0.71  0.71  0.00 -0.71  0.71 -0.00  0.00  0.00
  42  42 -1.00  0.00  0.00  0.00  0.71  0.71  0.00  0.71 -0.71 -1.00  0.00  0.00
  43  43  1.00  0.00  0.00  0.00  0.71  0.71  0.00  0.71 -0.71  0.00  0.00  0.00
  44  28 -1.00  0.00  0.00  0.00  0.71  0.71  0.00 -0.71  0.71 -1.00  0.00  0.00
  45  21  1.00  0.00  0.00  0.00  0.92 -0.38  0.00  0.38  0.92 -0.50  0.00  0.00
  46  46 -1.00  0.00  0.00  0.00  0.92 -0.38  0.00 -0.38 -0.92 -1.50  0.00  0.00
  47  47  1.00  0.00  0.00  0.00  0.92 -0.38  0.00 -0.38 -0.92 -0.50  0.00  0.00
  48  24 -1.00  0.00  0.00  0.00  0.92 -0.38  0.00  0.38  0.92 -0.50  0.00  0.00
  49  17  1.00  0.00  0.00  0.00  0.00 -1.00  0.00  1.00  0.00  0.00  0.00  0.00
  50  50 -1.00  0.00  0.00  0.00  0.00 -1.00  0.00 -1.00 -0.00 -1.00  0.00  0.00
  51  51  1.00  0.00  0.00  0.00  0.00 -1.00  0.00 -1.00 -0.00  0.00  0.00  0.00
  52  20 -1.00  0.00  0.00  0.00  0.00 -1.00  0.00  1.00  0.00 -1.00  0.00  0.00
  53  13  1.00  0.00  0.00  0.00 -0.92 -0.38  0.00  0.38 -0.92 -0.50  0.00  0.00
  54  54 -1.00  0.00  0.00  0.00 -0.92 -0.38  0.00 -0.38  0.92 -0.50  0.00  0.00
  55  55  1.00  0.00  0.00  0.00 -0.92 -0.38  0.00 -0.38  0.92 -0.50  0.00  0.00
  56  16 -1.00  0.00  0.00  0.00 -0.92 -0.38  0.00  0.38 -0.92 -0.50  0.00  0.00
  57   9  1.00  0.00  0.00  0.00 -0.71  0.71  0.00 -0.71 -0.71 -0.00  0.00  0.00
  58  58 -1.00  0.00  0.00  0.00 -0.71  0.71  0.00  0.71  0.71 -1.00  0.00  0.00
  59  59  1.00  0.00  0.00  0.00 -0.71  0.71  0.00  0.71  0.71  0.00  0.00  0.00
  60  12 -1.00  0.00  0.00  0.00 -0.71  0.71  0.00 -0.71 -0.71 -1.00  0.00  0.00
  61   5  1.00  0.00  0.00  0.00  0.38  0.92  0.00 -0.92  0.38 -0.50  0.00  0.00
  62  62 -1.00  0.00  0.00  0.00  0.38  0.92  0.00  0.92 -0.38 -1.50  0.00  0.00
  63  63  1.00  0.00  0.00  0.00  0.38  0.92  0.00  0.92 -0.38 -0.50  0.00  0.00
  64   8 -1.00  0.00  0.00  0.00  0.38  0.92  0.00 -0.92  0.38 -0.50  0.00  0.00
 TTTTTTTTTTTTTTTTTTTTTTTTTTTTTT END         TELAPSE      145.64 TCPU      139.53
 EEEEEEEEEE TERMINATION  DATE 04 03 2016 TIME 14:24:57.6
NODE    0 CPU TIME =       139.533
NODE    1 CPU TIME =       143.189
NODE    2 CPU TIME =       143.105
NODE    3 CPU TIME =       143.173
NODE    4 CPU TIME =       143.113
NODE    5 CPU TIME =       143.125
NODE    6 CPU TIME =       143.001
NODE    7 CPU TIME =       141.221
NODE    8 CPU TIME =       144.553
NODE    9 CPU TIME =       144.553
NODE   10 CPU TIME =       144.557
NODE   11 CPU TIME =       144.533
NODE   12 CPU TIME =       144.557
NODE   13 CPU TIME =       144.517
NODE   14 CPU TIME =       144.545
NODE   15 CPU TIME =       144.469
    TOTAL CPU TIME =      2295.743
Fri Mar  4 14:24:57 CET 2016
Contents of temporary directory in master node node79:
total 46644
-rw------- 1 casassa users    20265 Mar  4 14:24 FORCES.DAT
-rw------- 1 casassa users      192 Mar  4 14:24 HESSOPT.DAT
-rw-r--r-- 1 casassa users      322 Mar  4 14:22 INPUT
-rw------- 1 casassa users   431553 Mar  4 14:24 OPTINFO.DAT
-rwxr-xr-x 1 casassa users 43268780 Mar  4 14:22 Pcrystal
-rw------- 1 casassa users   131928 Mar  4 14:24 SCFOUT.LOG
-rw------- 1 casassa users        0 Mar  4 14:22 dffit3.dat
-rw------- 1 casassa users        0 Mar  4 14:22 fort.1.pe00
-rw------- 1 casassa users        0 Mar  4 14:22 fort.1.pe01
-rw------- 1 casassa users        0 Mar  4 14:22 fort.1.pe02
-rw------- 1 casassa users        0 Mar  4 14:22 fort.1.pe03
-rw------- 1 casassa users        0 Mar  4 14:22 fort.1.pe04
-rw------- 1 casassa users        0 Mar  4 14:22 fort.1.pe05
-rw------- 1 casassa users        0 Mar  4 14:22 fort.1.pe06
-rw------- 1 casassa users        0 Mar  4 14:22 fort.1.pe07
-rw------- 1 casassa users    11304 Mar  4 14:24 fort.10.pe00
-rw------- 1 casassa users    16232 Mar  4 14:24 fort.10.pe01
-rw------- 1 casassa users    14184 Mar  4 14:24 fort.10.pe02
-rw------- 1 casassa users    14184 Mar  4 14:24 fort.10.pe03
-rw------- 1 casassa users    11304 Mar  4 14:24 fort.10.pe04
-rw------- 1 casassa users    11304 Mar  4 14:24 fort.10.pe05
-rw------- 1 casassa users    16232 Mar  4 14:24 fort.10.pe06
-rw------- 1 casassa users    14320 Mar  4 14:24 fort.10.pe07
-rw------- 1 casassa users    10784 Mar  4 14:24 fort.11.pe00
-rw------- 1 casassa users    10784 Mar  4 14:24 fort.11.pe01
-rw------- 1 casassa users    10784 Mar  4 14:24 fort.11.pe02
-rw------- 1 casassa users    10784 Mar  4 14:24 fort.11.pe03
-rw------- 1 casassa users    10784 Mar  4 14:24 fort.11.pe04
-rw------- 1 casassa users    10784 Mar  4 14:24 fort.11.pe05
-rw------- 1 casassa users    10784 Mar  4 14:24 fort.11.pe06
-rw------- 1 casassa users    10784 Mar  4 14:24 fort.11.pe07
-rw------- 1 casassa users   240784 Mar  4 14:24 fort.12
-rw------- 1 casassa users        0 Mar  4 14:22 fort.17.pe01
-rw------- 1 casassa users        0 Mar  4 14:22 fort.17.pe02
-rw------- 1 casassa users        0 Mar  4 14:22 fort.17.pe03
-rw------- 1 casassa users        0 Mar  4 14:22 fort.17.pe04
-rw------- 1 casassa users        0 Mar  4 14:22 fort.17.pe05
-rw------- 1 casassa users        0 Mar  4 14:22 fort.17.pe06
-rw------- 1 casassa users        0 Mar  4 14:22 fort.17.pe07
-rw------- 1 casassa users        0 Mar  4 14:22 fort.18.pe00
-rw------- 1 casassa users        0 Mar  4 14:22 fort.18.pe01
-rw------- 1 casassa users        0 Mar  4 14:22 fort.18.pe02
-rw------- 1 casassa users        0 Mar  4 14:22 fort.18.pe03
-rw------- 1 casassa users        0 Mar  4 14:22 fort.18.pe04
-rw------- 1 casassa users        0 Mar  4 14:22 fort.18.pe05
-rw------- 1 casassa users        0 Mar  4 14:22 fort.18.pe06
-rw------- 1 casassa users        0 Mar  4 14:22 fort.18.pe07
-rw------- 1 casassa users        0 Mar  4 14:22 fort.19.pe00
-rw------- 1 casassa users        0 Mar  4 14:22 fort.19.pe01
-rw------- 1 casassa users        0 Mar  4 14:22 fort.19.pe02
-rw------- 1 casassa users        0 Mar  4 14:22 fort.19.pe03
-rw------- 1 casassa users        0 Mar  4 14:22 fort.19.pe04
-rw------- 1 casassa users        0 Mar  4 14:22 fort.19.pe05
-rw------- 1 casassa users        0 Mar  4 14:22 fort.19.pe06
-rw------- 1 casassa users        0 Mar  4 14:22 fort.19.pe07
-rw------- 1 casassa users   495028 Mar  4 14:24 fort.20
-rw------- 1 casassa users        0 Mar  4 14:22 fort.28.pe00
-rw------- 1 casassa users        0 Mar  4 14:22 fort.28.pe01
-rw------- 1 casassa users        0 Mar  4 14:22 fort.28.pe02
-rw------- 1 casassa users        0 Mar  4 14:22 fort.28.pe03
-rw------- 1 casassa users        0 Mar  4 14:22 fort.28.pe04
-rw------- 1 casassa users        0 Mar  4 14:22 fort.28.pe05
-rw------- 1 casassa users        0 Mar  4 14:22 fort.28.pe06
-rw------- 1 casassa users        0 Mar  4 14:22 fort.28.pe07
-rw------- 1 casassa users        0 Mar  4 14:22 fort.29.pe00
-rw------- 1 casassa users        0 Mar  4 14:22 fort.29.pe01
-rw------- 1 casassa users        0 Mar  4 14:22 fort.29.pe02
-rw------- 1 casassa users        0 Mar  4 14:22 fort.29.pe03
-rw------- 1 casassa users        0 Mar  4 14:22 fort.29.pe04
-rw------- 1 casassa users        0 Mar  4 14:22 fort.29.pe05
-rw------- 1 casassa users        0 Mar  4 14:22 fort.29.pe06
-rw------- 1 casassa users        0 Mar  4 14:22 fort.29.pe07
-rw------- 1 casassa users        0 Mar  4 14:22 fort.3.pe00
-rw------- 1 casassa users        0 Mar  4 14:22 fort.3.pe01
-rw------- 1 casassa users        0 Mar  4 14:22 fort.3.pe02
-rw------- 1 casassa users        0 Mar  4 14:22 fort.3.pe03
-rw------- 1 casassa users        0 Mar  4 14:22 fort.3.pe04
-rw------- 1 casassa users        0 Mar  4 14:22 fort.3.pe05
-rw------- 1 casassa users        0 Mar  4 14:22 fort.3.pe06
-rw------- 1 casassa users        0 Mar  4 14:22 fort.3.pe07
-rw------- 1 casassa users    14899 Mar  4 14:24 fort.33
-rw------- 1 casassa users    15929 Mar  4 14:24 fort.34
-rw------- 1 casassa users        0 Mar  4 14:22 fort.38.pe00
-rw------- 1 casassa users        0 Mar  4 14:22 fort.38.pe01
-rw------- 1 casassa users        0 Mar  4 14:22 fort.38.pe02
-rw------- 1 casassa users        0 Mar  4 14:22 fort.38.pe03
-rw------- 1 casassa users        0 Mar  4 14:22 fort.38.pe04
-rw------- 1 casassa users        0 Mar  4 14:22 fort.38.pe05
-rw------- 1 casassa users        0 Mar  4 14:22 fort.38.pe06
-rw------- 1 casassa users        0 Mar  4 14:22 fort.38.pe07
-rw------- 1 casassa users        0 Mar  4 14:22 fort.40.pe00
-rw------- 1 casassa users        0 Mar  4 14:22 fort.40.pe01
-rw------- 1 casassa users        0 Mar  4 14:22 fort.40.pe02
-rw------- 1 casassa users        0 Mar  4 14:22 fort.40.pe03
-rw------- 1 casassa users        0 Mar  4 14:22 fort.40.pe04
-rw------- 1 casassa users        0 Mar  4 14:22 fort.40.pe05
-rw------- 1 casassa users        0 Mar  4 14:22 fort.40.pe06
-rw------- 1 casassa users        0 Mar  4 14:22 fort.40.pe07
-rw------- 1 casassa users        0 Mar  4 14:22 fort.61.pe00
-rw------- 1 casassa users        0 Mar  4 14:22 fort.61.pe01
-rw------- 1 casassa users        0 Mar  4 14:22 fort.61.pe02
-rw------- 1 casassa users        0 Mar  4 14:22 fort.61.pe03
-rw------- 1 casassa users        0 Mar  4 14:22 fort.61.pe04
-rw------- 1 casassa users        0 Mar  4 14:22 fort.61.pe05
-rw------- 1 casassa users        0 Mar  4 14:22 fort.61.pe06
-rw------- 1 casassa users        0 Mar  4 14:22 fort.61.pe07
-rw------- 1 casassa users    63872 Mar  4 14:24 fort.62.pe00
-rw------- 1 casassa users    81920 Mar  4 14:24 fort.62.pe01
-rw------- 1 casassa users    67712 Mar  4 14:24 fort.62.pe02
-rw------- 1 casassa users    67712 Mar  4 14:24 fort.62.pe03
-rw------- 1 casassa users    63872 Mar  4 14:24 fort.62.pe04
-rw------- 1 casassa users    63872 Mar  4 14:24 fort.62.pe05
-rw------- 1 casassa users    81920 Mar  4 14:24 fort.62.pe06
-rw------- 1 casassa users    73152 Mar  4 14:24 fort.62.pe07
-rw------- 1 casassa users    11304 Mar  4 14:24 fort.8.pe00
-rw------- 1 casassa users    16232 Mar  4 14:24 fort.8.pe01
-rw------- 1 casassa users    14184 Mar  4 14:24 fort.8.pe02
-rw------- 1 casassa users    14184 Mar  4 14:24 fort.8.pe03
-rw------- 1 casassa users    11304 Mar  4 14:24 fort.8.pe04
-rw------- 1 casassa users    11304 Mar  4 14:24 fort.8.pe05
-rw------- 1 casassa users    16232 Mar  4 14:24 fort.8.pe06
-rw------- 1 casassa users    14320 Mar  4 14:24 fort.8.pe07
-rw------- 1 casassa users        0 Mar  4 14:22 fort.82.pe00
-rw------- 1 casassa users        0 Mar  4 14:22 fort.82.pe01
-rw------- 1 casassa users        0 Mar  4 14:22 fort.82.pe02
-rw------- 1 casassa users        0 Mar  4 14:22 fort.82.pe03
-rw------- 1 casassa users        0 Mar  4 14:22 fort.82.pe04
-rw------- 1 casassa users        0 Mar  4 14:22 fort.82.pe05
-rw------- 1 casassa users        0 Mar  4 14:22 fort.82.pe06
-rw------- 1 casassa users        0 Mar  4 14:22 fort.82.pe07
-rw------- 1 casassa users        0 Mar  4 14:22 fort.83.pe00
-rw------- 1 casassa users        0 Mar  4 14:22 fort.83.pe01
-rw------- 1 casassa users        0 Mar  4 14:22 fort.83.pe02
-rw------- 1 casassa users        0 Mar  4 14:22 fort.83.pe03
-rw------- 1 casassa users        0 Mar  4 14:22 fort.83.pe04
-rw------- 1 casassa users        0 Mar  4 14:22 fort.83.pe05
-rw------- 1 casassa users        0 Mar  4 14:22 fort.83.pe06
-rw------- 1 casassa users        0 Mar  4 14:22 fort.83.pe07
-rw------- 1 casassa users   495028 Mar  4 14:24 fort.9
-rw------- 1 casassa users    47208 Mar  4 14:24 fort.95.pe00
-rw------- 1 casassa users    47208 Mar  4 14:24 fort.95.pe01
-rw------- 1 casassa users    47208 Mar  4 14:24 fort.95.pe02
-rw------- 1 casassa users    47208 Mar  4 14:24 fort.95.pe03
-rw------- 1 casassa users    47208 Mar  4 14:24 fort.95.pe04
-rw------- 1 casassa users    47208 Mar  4 14:24 fort.95.pe05
-rw------- 1 casassa users    47208 Mar  4 14:24 fort.95.pe06
-rw------- 1 casassa users    47208 Mar  4 14:24 fort.95.pe07
-rw------- 1 casassa users  1244228 Mar  4 14:24 fort.98
-rw------- 1 casassa users    15929 Mar  4 14:23 optc001
-rw------- 1 casassa users    15929 Mar  4 14:23 optc002
-rw------- 1 casassa users    15929 Mar  4 14:24 optc003
-rw------- 1 casassa users    15929 Mar  4 14:24 optc004
-rw------- 1 casassa users    15929 Mar  4 14:24 optc006
wave function binary file /home/delapierre/simon/WORK/MIMMO_DEB_NEW/nodebug_parallel/TEST_SET_236/nano/test_nano05.f9
file fort.98 saved as /home/delapierre/simon/WORK/MIMMO_DEB_NEW/nodebug_parallel/TEST_SET_236/nano/test_nano05.f98
file optcxxx saved as /home/delapierre/simon/WORK/MIMMO_DEB_NEW/nodebug_parallel/TEST_SET_236/nano/test_nano05.optstory/optc001 /home/delapierre/simon/WORK/MIMMO_DEB_NEW/nodebug_parallel/TEST_SET_236/nano/test_nano05.optstory/optc002 /home/delapierre/simon/WORK/MIMMO_DEB_NEW/nodebug_parallel/TEST_SET_236/nano/test_nano05.optstory/optc003 /home/delapierre/simon/WORK/MIMMO_DEB_NEW/nodebug_parallel/TEST_SET_236/nano/test_nano05.optstory/optc004 /home/delapierre/simon/WORK/MIMMO_DEB_NEW/nodebug_parallel/TEST_SET_236/nano/test_nano05.optstory/optc006
file HESSOPT.DAT saved as /home/delapierre/simon/WORK/MIMMO_DEB_NEW/nodebug_parallel/TEST_SET_236/nano/test_nano05.hessopt
file OPTINFO.DAT saved as /home/delapierre/simon/WORK/MIMMO_DEB_NEW/nodebug_parallel/TEST_SET_236/nano/test_nano05.optinfo
file SCFOUT.LOG saved as /home/delapierre/simon/WORK/MIMMO_DEB_NEW/nodebug_parallel/TEST_SET_236/nano/test_nano05.SCFLOG
file fort.33 saved as /home/delapierre/simon/WORK/MIMMO_DEB_NEW/nodebug_parallel/TEST_SET_236/nano/test_nano05.xyz
geometry input file fort.34 saved as /home/delapierre/simon/WORK/MIMMO_DEB_NEW/nodebug_parallel/TEST_SET_236/nano/test_nano05.gui
removing temporary directories /data/casassa/tmp_p2369_casassa from each node
