nohup: ignoring input
------------------------------------------------------------
          Invoking FHI-aims ...

          When using FHI-aims, please cite the following reference:

            Volker Blum, Ralf Gehrke, Felix Hanke, Paula Havu,
            Ville Havu, Xinguo Ren, Karsten Reuter, and Matthias Scheffler,
            'Ab Initio Molecular Simulations with Numeric Atom-Centered Orbitals',
            Computer Physics Communications 180, 2175-2196 (2009)

          In addition, many other developments in FHI-aims are likely important for
          your particular application. A partial list of references is given at the end of
          this file. Thank you for giving credit to the authors of these developments.

          For any questions about FHI-aims, please visit our slack channel at

            https://fhi-aims.slack.com

          and our main development and support site at

            https://aims-git.rz-berlin.mpg.de .

          The latter site, in particular, has a wiki to collect information, as well
          as an issue tracker to log discussions, suggest improvements, and report issues
          or bugs. https://aims-git.rz-berlin.mpg.de is also the main development site
          of the project and all new and updated code versions can be obtained there.
          Please send an email to aims-coordinators@fhi-berlin.mpg.de and we will add
          you to these sites. They are for you and everyone is welcome there.

------------------------------------------------------------



  Date     :  20210412, Time     :  171639.041
  Time zero on CPU 1             :   0.133245000000000E+00  s.
  Internal wall clock time zero  :           387479799.041  s.

  FHI-aims created a unique identifier for this run for later identification
  aims_uuid : 96FB3551-6C90-4F06-AB9B-F7C098B3D7B7

  Build configuration of the current instance of FHI-aims
  -------------------------------------------------------
  FHI-aims version      : 210413
  Commit number         : fb5a9ba5c
  CMake host system     : Linux-3.10.0-1160.15.2.el7.x86_64
  CMake version         : 3.8.2
  Fortran compiler      : /opt/intel/impi/2018.4.274/bin64/mpiifort (Intel) version 18.0.5.20180823
  Fortran compiler flags: -O3 -ip -fp-model precise
  C compiler            : /opt/intel/compilers_and_libraries_2018.5.274/linux/bin/intel64/icc (Intel) version 18.0.5.20180823
  C compiler flags      : -O3 -ip -fp-model precise -std=gnu99
  Using MPI
  Using ScaLAPACK
  Using LibXC
  Using i-PI
  Using RLSY
  Linking against: /opt/intel/compilers_and_libraries_2018.5.274/linux/mkl/lib/intel64/libmkl_intel_lp64.so
                   /opt/intel/compilers_and_libraries_2018.5.274/linux/mkl/lib/intel64/libmkl_sequential.so
                   /opt/intel/compilers_and_libraries_2018.5.274/linux/mkl/lib/intel64/libmkl_core.so
                   /opt/intel/compilers_and_libraries_2018.5.274/linux/mkl/lib/intel64/libmkl_blacs_intelmpi_lp64.so
                   /opt/intel/compilers_and_libraries_2018.5.274/linux/mkl/lib/intel64/libmkl_scalapack_lp64.so

  Using       20 parallel tasks.
  Task        0 on host node15.timewarp reporting.
  Task        1 on host node15.timewarp reporting.
  Task        2 on host node15.timewarp reporting.
  Task        3 on host node15.timewarp reporting.
  Task        4 on host node15.timewarp reporting.
  Task        5 on host node15.timewarp reporting.
  Task        6 on host node15.timewarp reporting.
  Task        7 on host node15.timewarp reporting.
  Task        8 on host node15.timewarp reporting.
  Task        9 on host node15.timewarp reporting.
  Task       10 on host node15.timewarp reporting.
  Task       11 on host node15.timewarp reporting.
  Task       12 on host node15.timewarp reporting.
  Task       13 on host node15.timewarp reporting.
  Task       14 on host node15.timewarp reporting.
  Task       15 on host node15.timewarp reporting.
  Task       16 on host node15.timewarp reporting.
  Task       17 on host node15.timewarp reporting.
  Task       18 on host node15.timewarp reporting.
  Task       19 on host node15.timewarp reporting.

  Performing system and environment tests:
  | Environment variable OMP_NUM_THREADS correctly set to 1.
  | Checking for ScaLAPACK...
  | Testing pdtran()...
  | All pdtran() tests passed.

  Obtaining array dimensions for all initial allocations:
  
  -----------------------------------------------------------------------
  Parsing control.in (first pass over file, find array dimensions only).
  The contents of control.in will be repeated verbatim below
  unless switched off by setting 'verbatim_writeout .false.' .
  in the first line of control.in .
  -----------------------------------------------------------------------
  
  # Physical settings
    xc                 hse06 0.2
      hse_unit         Angstrom
      hybrid_xc_coeff  0.25
    spin               none
    relativistic       atomic_zora scalar
    include_spin_orbit
  
  # k-point grid
    k_grid  12 12 12
  
  # output DOS
    output dos_tetrahedron  -20.  0.  2001
  
  # output DOS
    output species_proj_dos_tetrahedron  -20.  0.  2001
  
  # exx_band_structure_version:
  # Technical keyword required to obtain a hybrid DFT band structure by the faster,
  # O(N) real-space approach. Note that this version of the band structure computation
  # usually "just works" for reasonably dense k-space grids. However, if a too small k-space grid is
  # specified, the underlying Fourier transformation can fail and lead to significant or
  # catastrophic band structure plot artifacts. In this case, a denser k-point grid will
  # be needed to solve the issue.
  
    exx_band_structure_version 1
  
  # output band structure
    output band 0.5   0.5   0.5    0.0   0.0   0.0    21  L     Gamma
    output band 0.0   0.0   0.0    0.0   0.5   0.5    21  Gamma X
    output band 0.0   0.5   0.5    0.25  0.5   0.75   21  X     W
    output band 0.25  0.5   0.75   0.375 0.375 0.375  21  W     K
  
  ################################################################################
  #
  #  FHI-aims code project
  #  Volker Blum, 2018
  #
  #  Suggested "intermediate" defaults for Ga atom (to be pasted into control.in file)
  #
  #  2020/09/15 These "intermediate" settings are identical to past "tight" defaults
  #             and differ only in the "g" function that is now included in "tight".
  #
  ################################################################################
    species        Ga
  #     global species definitions
      nucleus             31
      mass                69.723
  #
      l_hartree           6
  #
      cut_pot             4.0          2.0  1.0
      basis_dep_cutoff    1e-4
  #
      radial_base         54 7.0
      radial_multiplier   2
      angular_grids       specified
        division   0.3498   50
        division   0.6591  110
        division   0.9587  194
        division   1.2234  302
        division   1.4453  434
  #      division   1.5860  590
  #      division   1.8791  770
  #      division   1.9525  974
  #      division   2.3801 1202
  #      outer_grid  1202
        outer_grid  434
  ################################################################################
  #
  #  Definition of "minimal" basis
  #
  ################################################################################
  #     valence basis states
      valence      4  s   2.
      valence      4  p   1.
      valence      3  d  10.
  #     ion occupancy
      ion_occ      4  s   1.
      ion_occ      3  p   6.
      ion_occ      3  d  10.
  ################################################################################
  #
  #  Suggested additional basis functions. For production calculations,
  #  uncomment them one after another (the most important basis functions are
  #  listed first).
  #
  #  Constructed for dimers: 1.85 A, 2.10 A, 2.45 A, 3.00 A, 4.00 A
  #
  ################################################################################
  #  "First tier" - improvements: -222.33 meV to -26.19 meV
       hydro 2 p 1.2
       hydro 3 d 3.8
       hydro 4 f 6.8
       ionic 4 s auto
  #  "Second tier" - improvements: -11.68 meV to -1.61 meV
  #     hydro 5 g 10
  #     hydro 4 p 3.6
  #     hydro 4 f 13.2
  #     hydro 6 h 14.4
  #     hydro 4 d 5.2
  #     hydro 1 s 0.45
  #  "Third tier" - improvements: -0.64 meV to -0.15 meV
  #     hydro 3 p 3.4
  #     hydro 3 s 2.2
  #     hydro 5 g 14
  #     hydro 4 f 6.2
  #     hydro 5 d 7.2
  #  "Fourth tier"  -improvements: -0.12 meV and below
  #     hydro 3 s 3.8
  #     hydro 5 f 27.2
  #     hydro 6 h 16
  #     hydro 5 g 9.2
  #     hydro 4 d 8.6
  #     hydro 2 p 3.6
  
  ################################################################################
  #
  #  FHI-aims code project
  #  Volker Blum, 2018
  #
  #  Suggested "intermediate" defaults for As atom (to be pasted into control.in file)
  #
  #  2020/09/15 These "intermediate" settings are identical to past "tight" defaults
  #             and differ only in the "g" function that is now included in "tight".
  #
  ################################################################################
    species        As
  #
      nucleus             33
      mass                74.92160
  #
      l_hartree           6
  #
      cut_pot             4.0          2.0  1.0
      basis_dep_cutoff    1e-4
  #
      radial_base         55 7.0
      radial_multiplier   2
      angular_grids       specified
        division   0.3346   50
        division   0.6815  110
        division   0.9821  194
        division   1.2024  302
        division   1.4689  434
  #      division   1.5802  590
  #      division   1.6697  770
  #      division   1.7649  974
  #      division   2.6635 1202
  #      outer_grid  1202
        outer_grid  434
  ################################################################################
  #
  #  Definition of "minimal" basis
  #
  ################################################################################
  #     valence basis states
      valence      4  s   2.
      valence      4  p   3.
      valence      3  d  10.
  #     ion occupancy
      ion_occ      4  s   1.
      ion_occ      4  p   2.
      ion_occ      3  d  10.
  ################################################################################
  #
  #  Suggested additional basis functions. For production calculations,
  #  uncomment them one after another (the most important basis functions are
  #  listed first).
  #
  #  Constructed for dimers: 1.75 A, 2.10 A, 2.50 A, 3.00 A, 4.00 A
  #
  ################################################################################
  #  "First tier" - improvements: -385.12 meV to -54.94 meV
       hydro 3 d 4
       hydro 2 p 1.5
       hydro 4 f 6.8
       ionic 4 s auto
  #  "Second tier" - improvements: -22.14 meV to -3.21 meV
  #     hydro 5 g 10
  #     hydro 6 h 13.6
  #     hydro 4 p 4.3
  #     hydro 4 f 15.6
  #     hydro 4 d 5.4
  #     hydro 1 s 0.6
  #  "Third tier" - improvements: -0.57 meV to -0.13 meV
  #     hydro 5 g 16.4
  #     hydro 4 f 7.4
  #     hydro 5 d 7.4
  #     ionic 4 p auto
  #     hydro 3 s 2.6
  #  "Fourth tier" - improvements: -0.30 meV and below
  #     hydro 3 p 3
  #     hydro 6 h 18.4
  #     hydro 5 d 11.2
  #     hydro 5 f 15.2
  #     hydro 5 g 13.6
  #     hydro 5 s 6.2
  
  -----------------------------------------------------------------------
  Completed first pass over input file control.in .
  -----------------------------------------------------------------------
  
  
  -----------------------------------------------------------------------
  Parsing geometry.in (first pass over file, find array dimensions only).
  The contents of geometry.in will be repeated verbatim below
  unless switched off by setting 'verbatim_writeout .false.' .
  in the first line of geometry.in .
  -----------------------------------------------------------------------
  
  # Zincblende structure with experimental lattice parameter a = 5.65315 AA.
  lattice_vector    0.0        2.826575   2.826575
  lattice_vector    2.826575   0.0        2.826575
  lattice_vector    2.826575   2.826575   0.0
  
  atom_frac          0.0    0.0    0.0   Ga
  atom_frac          0.25   0.25   0.25  As
  
  -----------------------------------------------------------------------
  Completed first pass over input file geometry.in .
  -----------------------------------------------------------------------
  

  Basic array size parameters:
  | Number of species                 :        2
  | Number of atoms                   :        2
  | Number of lattice vectors         :        3
  | Max. basis fn. angular momentum   :        3
  | Max. atomic/ionic basis occupied n:        4
  | Max. number of basis fn. types    :        3
  | Max. radial fns per species/type  :        8
  | Max. logarithmic grid size        :     1417
  | Max. radial integration grid size :      111
  | Max. angular integration grid size:      434
  | Max. angular grid division number :        8
  | Radial grid for Hartree potential :     1417
  | Number of spin channels           :        1

------------------------------------------------------------
          Reading file control.in.
------------------------------------------------------------

  XC: Using HSE-functional with OMEGA =  0.200000E+00 <units>.
  XC: For the actual units (bohr^-1 or Angstrom^-1), see below.
  hse_unit: Unit for the HSE06 hybrid functional screening parameter set to A^(-1).
  hybrid_xc_coeff: Mixing coefficient for hybrid-functional exact exchange modified to         0.25000000 .
  * WARNING: This change modifies the chosen exchange-correlation functional (keyword 'xc')
  * from its literature definition. Be sure to NEVER include such a line in any default control.in files!
  Spin treatment: No spin polarisation.
  Scalar relativistic treatment of kinetic energy: on-site free-atom approximation to ZORA.
  Calculating non-self-consistent second-variational spin-orbit coupling after scf-cycle
  Found k-point grid:        12        12        12
  Calculating density of states with
  | energy interval :-20.000000  0.000000
  | points & tetrahedron method :  2001
  Calculating angular-momentum projected DOS with 
  | energy interval :-20.000000  0.000000
  | points & tetrahedron :  2001

  Plot band    1
  | begin  0.500000  0.500000  0.500000
  | end    0.000000  0.000000  0.000000
  | number of points:   21

  Plot band    2
  | begin  0.000000  0.000000  0.000000
  | end    0.000000  0.500000  0.500000
  | number of points:   21

  Plot band    3
  | begin  0.000000  0.500000  0.500000
  | end    0.250000  0.500000  0.750000
  | number of points:   21

  Plot band    4
  | begin  0.250000  0.500000  0.750000
  | end    0.375000  0.375000  0.375000
  | number of points:   21
 
  Reading configuration options for species Ga                  .
  | Found nuclear charge :  31.0000
  | Found atomic mass :    69.7230000000000      amu
  | Found l_max for Hartree potential  :   6
  | Found cutoff potl. onset [A], width [A], scale factor :    4.00000    2.00000    1.00000
  | Threshold for basis-dependent cutoff potential is   0.100000E-03
  | Found data for basic radial integration grid :    54 points, outermost radius =    7.000 A
  | Found multiplier for basic radial grid :   2
  | Found angular grid specification: user-specified.
  | Specified grid contains     6 separate shells.
  | Check grid settings after all constraints further below.
  | Found free-atom valence shell :  4 s   2.000
  | Found free-atom valence shell :  4 p   1.000
  | Found free-atom valence shell :  3 d  10.000
  | Found free-ion valence shell :  4 s   1.000
  | Found free-ion valence shell :  3 p   6.000
  | Found free-ion valence shell :  3 d  10.000
  | Found hydrogenic basis function :  2 p   1.200
  | Found hydrogenic basis function :  3 d   3.800
  | Found hydrogenic basis function :  4 f   6.800
  | Found ionic basis function :  4 s , default cutoff radius.
  Species Ga                  : Missing cutoff potential type.
  Defaulting to exp(1/x)/(1-x)^2 type cutoff potential.
  Species Ga: No 'logarithmic' tag. Using default grid for free atom:
  | Default logarithmic grid data [bohr] : 0.1000E-03 0.1000E+03 0.1012E+01
  | Will include ionic basis functions of  2.0-fold positive Ga                   ion.
  Species Ga: On-site basis accuracy parameter (for Gram-Schmidt orthonormalisation) not specified.
  Using default value basis_acc =  0.1000000E-03.
  Species Ga                  : Using default innermost maximum threshold i_radial=  2 for radial functions.
  Species Ga                  : Default cutoff onset for free atom density etc. : 0.40000000E+01 AA.
  Species Ga                  : Basic radial grid will be enhanced according to radial_multiplier =   2, to contain   109 grid points.
 
  Reading configuration options for species As                  .
  | Found nuclear charge :  33.0000
  | Found atomic mass :    74.9216000000000      amu
  | Found l_max for Hartree potential  :   6
  | Found cutoff potl. onset [A], width [A], scale factor :    4.00000    2.00000    1.00000
  | Threshold for basis-dependent cutoff potential is   0.100000E-03
  | Found data for basic radial integration grid :    55 points, outermost radius =    7.000 A
  | Found multiplier for basic radial grid :   2
  | Found angular grid specification: user-specified.
  | Specified grid contains     6 separate shells.
  | Check grid settings after all constraints further below.
  | Found free-atom valence shell :  4 s   2.000
  | Found free-atom valence shell :  4 p   3.000
  | Found free-atom valence shell :  3 d  10.000
  | Found free-ion valence shell :  4 s   1.000
  | Found free-ion valence shell :  4 p   2.000
  | Found free-ion valence shell :  3 d  10.000
  | Found hydrogenic basis function :  3 d   4.000
  | Found hydrogenic basis function :  2 p   1.500
  | Found hydrogenic basis function :  4 f   6.800
  | Found ionic basis function :  4 s , default cutoff radius.
  Species As                  : Missing cutoff potential type.
  Defaulting to exp(1/x)/(1-x)^2 type cutoff potential.
  Species As: No 'logarithmic' tag. Using default grid for free atom:
  | Default logarithmic grid data [bohr] : 0.1000E-03 0.1000E+03 0.1012E+01
  | Will include ionic basis functions of  2.0-fold positive As                   ion.
  Species As: On-site basis accuracy parameter (for Gram-Schmidt orthonormalisation) not specified.
  Using default value basis_acc =  0.1000000E-03.
  Species As                  : Using default innermost maximum threshold i_radial=  2 for radial functions.
  Species As                  : Default cutoff onset for free atom density etc. : 0.40000000E+01 AA.
  Species As                  : Basic radial grid will be enhanced according to radial_multiplier =   2, to contain   111 grid points.
 
  Finished reading input file 'control.in'.
 
------------------------------------------------------------


------------------------------------------------------------
          Reading geometry description geometry.in.
------------------------------------------------------------
  | The smallest distance between any two atoms is         2.44788576 AA.
  | The first atom of this pair is atom number                      1 .
  | The second atom of this pair is atom number                     2 .
  | Wigner-Seitz cell of the first atom image           0     1     0 .
  | (The Wigner-Seitz cell of the second atom is 0 0 0  by definition.)

  Symmetry information by spglib:
  | Precision set to  0.1E-04
  | Number of Operations  : 24
  | Space group           : 216
  | International         : F-43m     F
  | Schoenflies           : Td^2
  Input structure read successfully.
  The structure contains        2 atoms,  and a total of         64.000 electrons.

  Input geometry:
  | Unit cell:
  |        0.00000000        2.82657500        2.82657500
  |        2.82657500        0.00000000        2.82657500
  |        2.82657500        2.82657500        0.00000000
  | Atomic structure:
  |       Atom                x [A]            y [A]            z [A]
  |    1: Species Ga            0.00000000        0.00000000        0.00000000
  |    2: Species As            1.41328750        1.41328750        1.41328750

  Lattice parameters for 3D lattice (in Angstroms) :     3.997381    3.997381    3.997381
  Angle(s) between unit vectors (in degrees)       :    60.000000   60.000000   60.000000


  Quantities derived from the lattice vectors:
  | Reciprocal lattice vector 1: -1.111449  1.111449  1.111449
  | Reciprocal lattice vector 2:  1.111449 -1.111449  1.111449
  | Reciprocal lattice vector 3:  1.111449  1.111449 -1.111449
  | Unit cell volume                               :   0.451660E+02  A^3

  Fractional coordinates:
                         L1                L2                L3
       atom_frac         0.00000000        0.00000000        0.00000000  Ga
       atom_frac         0.25000000        0.25000000        0.25000000  As

 
  Finished reading input file 'control.in'.
 

------------------------------------------------------------
          Reading geometry description geometry.in.
------------------------------------------------------------
 
  Consistency checks for stacksize environment parameter are next.
 
  | Maximum stacksize for task 0: unlimited
  | Maximum stacksize for task 1: unlimited
  | Maximum stacksize for task 2: unlimited
  | Maximum stacksize for task 3: unlimited
  | Maximum stacksize for task 4: unlimited
  | Maximum stacksize for task 5: unlimited
  | Maximum stacksize for task 6: unlimited
  | Maximum stacksize for task 7: unlimited
  | Maximum stacksize for task 8: unlimited
  | Maximum stacksize for task 9: unlimited
  | Maximum stacksize for task 10: unlimited
  | Maximum stacksize for task 11: unlimited
  | Maximum stacksize for task 12: unlimited
  | Maximum stacksize for task 13: unlimited
  | Maximum stacksize for task 14: unlimited
  | Maximum stacksize for task 15: unlimited
  | Maximum stacksize for task 16: unlimited
  | Maximum stacksize for task 17: unlimited
  | Maximum stacksize for task 18: unlimited
  | Maximum stacksize for task 19: unlimited
  | Current stacksize for task 0: unlimited
  | Current stacksize for task 1: unlimited
  | Current stacksize for task 2: unlimited
  | Current stacksize for task 3: unlimited
  | Current stacksize for task 4: unlimited
  | Current stacksize for task 5: unlimited
  | Current stacksize for task 6: unlimited
  | Current stacksize for task 7: unlimited
  | Current stacksize for task 8: unlimited
  | Current stacksize for task 9: unlimited
  | Current stacksize for task 10: unlimited
  | Current stacksize for task 11: unlimited
  | Current stacksize for task 12: unlimited
  | Current stacksize for task 13: unlimited
  | Current stacksize for task 14: unlimited
  | Current stacksize for task 15: unlimited
  | Current stacksize for task 16: unlimited
  | Current stacksize for task 17: unlimited
  | Current stacksize for task 18: unlimited
  | Current stacksize for task 19: unlimited
 
  Consistency checks for the contents of control.in are next.
 
  HSE06 functional: Converting omega to        0.10583544 bohr^-1.
  HSE06 screening parameters: omega_HF  =      0.10583544 bohr^-1, and
                              omega_PBE =      0.10583544 bohr^-1.
  MPI_IN_PLACE appears to work with this MPI implementation.
  | Keeping use_mpi_in_place .true. (see manual).
  Explicit treatment of the Coulomb operator is needed, but the RI method is not specified.
  Coulomb operator: Defaulting to 'LVL fast' resolution of identity - RI_type = LVL_fast
  Species Ga: Using default value for prodbas_acc =   1.000000E-04.
  Species Ga: Using default value max_l_prodbas =    20.
  Species As: Using default value for prodbas_acc =   1.000000E-04.
  Species As: Using default value max_l_prodbas =    20.
  Target number of points in a grid batch is not set. Defaulting to  100
  Method for grid partitioning is not set. Defaulting to parallel hash+maxmin partitioning.
  Batch size limit is not set. Defaulting to    200
  By default, will store active basis functions for each batch.
  If in need of memory, prune_basis_once .false. can be used to disable this option.
  communication_type for Hartree potential was not specified.
  Defaulting to calc_hartree .
  Defaulting to Pulay charge density mixer.
  Pulay mixer: Number of relevant iterations not set.
  Defaulting to    8 iterations.
  Pulay mixer: Number of initial linear mixing iterations not set.
  Defaulting to    0 iterations.
  Work space size for distributed Hartree potential not set.
  Defaulting to   0.200000E+03 MB.
  Mixing parameter for charge density mixing has not been set.
  Using default: charge_mix_param =     0.0500.
  The mixing parameter will be adjusted in iteration number     2 of the first full s.c.f. cycle only.
  Algorithm-dependent basis array size parameters:
  | n_max_pulay                         :        8
  Maximum number of self-consistency iterations not provided.
  Presetting  1000 iterations.
  Presetting      1001 iterations before the initial mixing cycle
  is restarted anyway using the sc_init_iter criterion / keyword.
  Presetting a factor      1.000 between actual scf density residual
  and density convergence criterion sc_accuracy_rho below which sc_init_iter
  takes no effect.
 * No s.c.f. convergence criteria (sc_accuracy_*) were provided in control.in.
 * The run will proceed with a reasonable default guess, but please check whether.
 * the s.c.f. cycles seem to take too much or too little time.
  Calculation of forces was not defined in control.in. No forces will be calculated.
  Geometry relaxation not requested: no relaxation will be performed.
 * Notice: The s.c.f. convergence criterion sc_accuracy_rho was not provided.
 * We used to stop in this case, and ask the user to provide reasonable
 * scf convergence criteria. However, this led some users to employ criteria
 * that led to extremely long run times, e.g., for simple relaxation.
 * We now preset a default value for sc_accuracy_rho if it is not set.
 * You may still wish to check if this setting is too tight or too loose for your needs.
 * Based on n_atoms, FHI-aims chose sc_accuracy_rho =  0.100000E-05 .
  No accuracy limit for integral partition fn. given. Defaulting to  0.1000E-14.
  No threshold value for u(r) in integrations given. Defaulting to  0.1000E-05.
  No occupation type (smearing scheme) given. Defaulting to Gaussian broadening, width =  0.1000E-01 eV.
  The width will be adjusted in iteration number     2 of the first full s.c.f. cycle only.
  S.C.F. convergence parameters will be adjusted in iteration number     2 of the first full s.c.f. cycle only.
  No accuracy for occupation numbers given. Defaulting to  0.1000E-12.
  No threshold value for occupation numbers given. Defaulting to  0.0000E+00.
  No accuracy for fermi level given. Defaulting to  0.1000E-19.
  Maximum # of iterations to find E_F not set. Defaulting to  200.
  Preferred method for the eigenvalue solver ('KS_method') not specified in 'control.in'.
  Defaulting to serial version, LAPACK (via ELSI), since more k-points than CPUs available.
  Will not use alltoall communication since running on < 1024 CPUs.
  Threshold for basis singularities not set.
  Default threshold for basis singularities:  0.1000E-04
  partition_type (choice of integration weights) for integrals was not specified.
  | Using a version of the partition function of Stratmann and coworkers ('stratmann_sparse').
  | At each grid point, the set of atoms used to build the partition table is smoothly restricted to
  | only those atoms whose free-atom density would be non-zero at that grid point.
  Partitioning for Hartree potential was not defined. Using partition_type for integrals.
  | Adjusted default value of keyword multip_moments_threshold to:       0.10000000E-11
  | This value may affect high angular momentum components of the Hartree potential in periodic systems.
  Threshold for auxiliary basis singularities not set.
  Default threshold for auxiliary basis singularities:  0.1000E-04
  No q(lm)/r^(l+1) cutoff set for long-range Hartree potential.
  | Using default value of  0.100000E-09 .
  | Verify using the multipole_threshold keyword.
  Defaulting to new monopole extrapolation.
  Density update method: automatic selection selected.
  Using density matrix based charge density update.
  Using density matrix based charge density update.
  Using packed matrix style: index .
 * NOTE: You are attempting to run a periodic structure with an exchange treatment
 * which requires a two-electron Coulomb operator (Hartree-Fock or a hybrid functional).
 * The present implementation is reliable to our knowledge, but some things
 * (like band structure output, or perhaps the auxilary basis set for small
 * orbital basis sets - see the "for_aux" keyword) require extra care.
 * Please let us know if you encounter any trouble.
  Coulomb operator: Defaulting to screening threshold for four-center integrals:   0.100000E-06
  Coulomb operator: Defaulting to screening threshold for Coulomb matrix:   0.100000E-09
  Coulomb operator: Defaulting to 'LVL_fast' resolution of identity - RI_type = LVL_fast 
  No other resolution of identity version is supported for periodic boundary conditions at present.
  Coulomb operator: Defaulting to logarithmic spherical Bessel transform integrals (use_logsbt .true.).
  HSE with LVL_fast: Also defaulting to logarithmic spherical Bessel transform integrals.
  Defaulting to use full k-point grid (no symmetry reduction).
  Charge integration errors on the 3D integration grid will be compensated
  by explicit normalization and distribution of residual charges.
  Use the "compensate_multipole_errors" flag to change this behaviour.
  LVL not implemented with density matrix yet
  -> switching to transformed overlap
  LVL probably works better with logsbt
  Default to 1D ("use_logsbt") integrations for auxiliary 2-center integrals.
  Default onset of logarithmic r-grid for SBT is -38.000000000000
  Default onset of logarithmic k-grid for SBT is -25.000000000000
  Default range of logarithmic r- and k-grid for SBT is  45.000000000000
  Default number of logarithmic r- and k-grid for SBT is   4096
  * Use logSBT for radial HSE integration, too
 * NOTE: Band structure and exact exchange are requested at the same time,
 * and exx_band_structure_version is set to 1. 
 * exx_band_structure_version 1 is evaluated in a real-space formalism. It is fast
 * and the preferred version. HOWEVER, it does require a sufficiently
 * dense 'k_grid' to be used for the preceding s.c.f. cycle.
 * If the 'k_grid used for s.c.f. is NOT dense enough, the real-
 * space approach will produce bands that are OBVIOUSLY incorrect.
 * You cannot miss this - they won't look 'slightly' correct. In
 * that case, please try to increase the 'k_grid' parameters used
 * for the s.c.f. cycle. In particular, please avoid k_grid dimensions 
 * of '1' (one) in any dimension. We apologize for this inconvenience.
 * On the bright side, if you use exx_band_structure_version 1 
 * correctly, it will give reliable results without much overhead.
 * 
 * If your band structure does not look reasonable, increase the s.c.f. k-point
 * grid density. Again, it is especially recommended that you avoid dimensions of 1 when
 * specifying k_grid and using this option, even for large unit cells where a
 * gamma-point-only k-grid would be sufficient to converge the accuracy of the
 * calculation.
 * 
 * Please test (e.g., by comparing results from different k_grid settings) when in any doubt.
  Set 'collect_eigenvectors' to be '.true.' for all serial calculations. This is mandatory.
  Set 'collect_eigenvectors' to be '.true.' for KS_method lapack_fast and serial.
 
  Consistency checks for the contents of geometry.in are next.
 

  Range separation radius for Ewald summation (hartree_convergence_parameter):      4.06363737 bohr.
  Number of empty states per atom not set in control.in - providing a guess from actual geometry.
  | Total number of empty states used during s.c.f. cycle:       11
  If you use a very high smearing, use empty_states (per atom!) in control.in to increase this value.

  Structure-dependent array size parameters: 
  | Maximum number of distinct radial functions  :       24
  | Maximum number of basis functions            :       68
  | Number of Kohn-Sham states (occupied + empty):       43
------------------------------------------------------------
  Setting Coulomb cut-width to  1.091868692359 * rcut.
  Setting Coulomb cutting radius rcut to 23.984284200388 A.

------------------------------------------------------------
          Preparing all fixed parts of the calculation.
------------------------------------------------------------
  Determining machine precision:
    2.225073858507201E-308
  Setting up grids for atomic and cluster calculations.

  Creating wave function, potential, and density for free atoms.

  Species: Ga

  List of occupied orbitals and eigenvalues:
    n    l              occ      energy [Ha]    energy [eV]
    1    0           2.0000      -380.499117    -10353.9078
    2    0           2.0000       -46.469610     -1264.5024
    3    0           2.0000        -5.436848      -147.9442
    4    0           2.0000        -0.323063        -8.7910
    2    1           6.0000       -40.443035     -1100.5110
    3    1           6.0000        -3.625385       -98.6518
    4    1           1.0000        -0.088117        -2.3978
    3    2          10.0000        -0.696999       -18.9663


  Species: As

  List of occupied orbitals and eigenvalues:
    n    l              occ      energy [Ha]    energy [eV]
    1    0           2.0000      -436.649520    -11881.8380
    2    0           2.0000       -54.755544     -1489.9742
    3    0           2.0000        -6.992637      -190.2793
    4    0           2.0000        -0.530794       -14.4436
    2    1           6.0000       -48.002396     -1306.2117
    3    1           6.0000        -4.910227      -133.6141
    4    1           3.0000        -0.189185        -5.1480
    3    2          10.0000        -1.492027       -40.6001


  Adding cutoff potential to free-atom effective potential.
  Creating fixed part of basis set: Ionic, confined, hydrogenic.
 
  Ga                   ion:

  List of free ionic orbitals and eigenvalues:
    n    l      energy [Ha]    energy [eV]
    1    0      -381.269939    -10374.8829
    2    0       -47.220675     -1284.9399
    3    0        -6.191291      -168.4736
    4    0        -0.957864       -26.0648
    2    1       -41.195167     -1120.9775
    3    1        -4.379935      -119.1841
    3    2        -1.446562       -39.3629


  List of ionic basis orbitals and eigenvalues:
    n    l      energy [Ha]    energy [eV]    outer radius [A]
    4    0        -0.957856       -26.0646       4.760587

 
  Ga                   hydrogenic:
 
  List of hydrogenic basis orbitals: 
    n    l      effective z      eigenvalue [eV]  inner max. [A]     outer max. [A]     outer radius [A]   
    2    1         1.200000        -4.7493           1.725811           1.725811           5.445806
    3    2         3.800000       -21.8280           1.255894           1.255894           5.379637
    4    3         6.800000       -39.3202           1.240634           1.240634           5.185913
 
 
  As                   ion:

  List of free ionic orbitals and eigenvalues:
    n    l      energy [Ha]    energy [eV]
    1    0      -437.521171    -11905.5568
    2    0       -55.607242     -1513.1500
    3    0        -7.840974      -213.3638
    4    0        -1.261898       -34.3380
    2    1       -48.854908     -1329.4097
    3    1        -5.758049      -156.6845
    4    1        -0.860696       -23.4207
    3    2        -2.335871       -63.5623


  List of ionic basis orbitals and eigenvalues:
    n    l      energy [Ha]    energy [eV]    outer radius [A]
    4    0        -1.261891       -34.3378       4.258644

 
  As                   hydrogenic:
 
  List of hydrogenic basis orbitals: 
    n    l      effective z      eigenvalue [eV]  inner max. [A]     outer max. [A]     outer radius [A]   
    3    2         4.000000       -24.1871           1.194291           1.194291           5.372135
    2    1         1.500000        -7.6128           1.400007           1.400007           5.438212
    4    3         6.800000       -39.3202           1.238904           1.238904           5.178681
 
  Creating atomic-like basis functions for current effective potential.

  Species Ga                  :

  List of atomic basis orbitals and eigenvalues:
    n    l      energy [Ha]    energy [eV]    outer radius [A]
    1    0      -380.499117    -10353.9078       0.339519
    2    0       -46.469610     -1264.5024       0.983486
    3    0        -5.436848      -147.9442       2.780058
    4    0        -0.323063        -8.7910       5.379637
    2    1       -40.443035     -1100.5110       1.020225
    3    1        -3.625385       -98.6518       3.258922
    4    1        -0.088117        -2.3978       5.445806
    3    2        -0.696999       -18.9663       5.060655


  Species As                  :

  List of atomic basis orbitals and eigenvalues:
    n    l      energy [Ha]    energy [eV]    outer radius [A]
    1    0      -436.649520    -11881.8380       0.318942
    2    0       -54.755544     -1489.9742       0.912655
    3    0        -6.992637      -190.2793       2.486936
    4    0        -0.530794       -14.4436       5.306860
    2    1       -48.002396     -1306.2117       0.946748
    3    1        -4.910227      -133.6141       2.844895
    4    1        -0.189185        -5.1480       5.438212
    3    2        -1.492027       -40.6001       4.527073

  Assembling full basis from fixed parts.
  | Species Ga :   atomic orbital   1 s accepted.
  | Species Ga :   atomic orbital   2 s accepted.
  | Species Ga :   atomic orbital   3 s accepted.
  | Species Ga :    ionic orbital   4 s accepted.
  | Species Ga :   atomic orbital   4 s accepted.
  | Species Ga :   atomic orbital   2 p accepted.
  | Species Ga :   atomic orbital   3 p accepted.
  | Species Ga :   atomic orbital   4 p accepted.
  | Species Ga :    hydro orbital   2 p accepted.
  | Species Ga :   atomic orbital   3 d accepted.
  | Species Ga :    hydro orbital   3 d accepted.
  | Species Ga :    hydro orbital   4 f accepted.
  | Species As :   atomic orbital   1 s accepted.
  | Species As :   atomic orbital   2 s accepted.
  | Species As :   atomic orbital   3 s accepted.
  | Species As :    ionic orbital   4 s accepted.
  | Species As :   atomic orbital   4 s accepted.
  | Species As :   atomic orbital   2 p accepted.
  | Species As :   atomic orbital   3 p accepted.
  | Species As :   atomic orbital   4 p accepted.
  | Species As :    hydro orbital   2 p accepted.
  | Species As :   atomic orbital   3 d accepted.
  | Species As :    hydro orbital   3 d accepted.
  | Species As :    hydro orbital   4 f accepted.
 
  Basis size parameters after reduction:
  | Total number of radial functions:       24
  | Total number of basis functions :       68
 
  Per-task memory consumption for arrays in subroutine allocate_ext:
  |           8.708992MB.
  Testing on-site integration grid accuracy.
  |  Species  Function  <phi|h_atom|phi> (log., in eV)  <phi|h_atom|phi> (rad., in eV)
           1        1             -10353.9077629892             -10353.9073028320
           1        2              -1264.5024135447              -1264.5024070275
           1        3               -147.9441678780               -147.9441669488
           1        4                 -8.4148692911                 -8.4148689113
           1        5                  4.7381165936                  4.7380408929
           1        6              -1100.5109801210              -1100.5109796516
           1        7                -98.6517545591                -98.6517540185
           1        8                 -2.4084549803                 -2.4084810126
           1        9                  5.1682140600                  5.1680886137
           1       10                -18.9663196997                -18.9663195664
           1       11                  8.8349655596                  8.8349615208
           1       12                 22.8735609727                 22.8735619171
           2       13             -11881.8379867549             -11881.8374048622
           2       14              -1489.9741630771              -1489.9741530529
           2       15               -190.2793234935               -190.2793223341
           2       16                -14.1960327161                -14.1960324769
           2       17                  5.9274629900                  5.9274413386
           2       18              -1306.2116640294              -1306.2116626351
           2       19               -133.6140787212               -133.6140780872
           2       20                 -5.1494783706                 -5.1494878741
           2       21                  4.9946648260                  4.9944740976
           2       22                -40.6001171048                -40.6001169605
           2       23                  7.1867940614                  7.1867909443
           2       24                 21.1344938241                 21.1344949749

  Preparing densities etc. for the partition functions (integrals / Hartree potential).

  Preparations completed.
  max(cpu_time)          :      0.465 s.
  Wall clock time (cpu1) :      0.464 s.
------------------------------------------------------------

------------------------------------------------------------
          Begin self-consistency loop: Initialization.

          Date     :  20210412, Time     :  171639.562
------------------------------------------------------------

  Initializing index lists of integration centers etc. from given atomic structure:
  Mapping all atomic coordinates to central unit cell.

  Initializing the k-points
  | Number of k-points                             :      1728
  | Consuming      46656 KiB for k_phase_exx.
  The eigenvectors in the calculations are COMPLEX.
  | K-points in task   0:        86
  | K-points in task   1:        87
  | K-points in task   2:        87
  | K-points in task   3:        87
  | K-points in task   4:        87
  | K-points in task   5:        87
  | K-points in task   6:        87
  | K-points in task   7:        87
  | K-points in task   8:        87
  | K-points in task   9:        86
  | K-points in task  10:        86
  | K-points in task  11:        86
  | K-points in task  12:        86
  | K-points in task  13:        86
  | K-points in task  14:        86
  | K-points in task  15:        86
  | K-points in task  16:        86
  | K-points in task  17:        86
  | K-points in task  18:        86
  | K-points in task  19:        86
  | Number of basis functions in the Hamiltonian integrals :      2718
  | Number of basis functions in a single unit cell        :        68
  | Number of centers in hartree potential         :       810
  | Number of centers in hartree multipole         :       432
  | Number of centers in electron density summation:       321
  | Number of centers in basis integrals           :       336
  | Number of centers in integrals                 :       146
  | Number of centers in hamiltonian               :       324
  | Consuming       4968 KiB for k_phase.
  | Number of super-cells (origin) [n_cells]                     :        2197
  | Number of super-cells (after PM_index) [n_cells]             :         184
  | Number of super-cells in hamiltonian [n_cells_in_hamiltonian]:         184
  | Size of matrix packed + index [n_hamiltonian_matrix_size] :      194791
  | Estimated reciprocal-space cutoff momentum G_max:         2.38664156 bohr^-1 .
  | Reciprocal lattice points for long-range Hartree potential:      64
  Partitioning the integration grid into batches with parallel hashing+maxmin method.
  | Number of batches:      637
  | Maximal batch size:     105
  | Minimal batch size:      50
  | Average batch size:      73.312
  | Standard deviation of batch sizes:      13.287

  Integration load balanced across    20 MPI tasks.
  Work distribution over tasks is as follows:
  Task     0 has       2278 integration points.
  Task     1 has       2370 integration points.
  Task     2 has       2277 integration points.
  Task     3 has       2337 integration points.
  Task     4 has       2368 integration points.
  Task     5 has       2305 integration points.
  Task     6 has       2368 integration points.
  Task     7 has       2370 integration points.
  Task     8 has       2295 integration points.
  Task     9 has       2286 integration points.
  Task    10 has       2362 integration points.
  Task    11 has       2354 integration points.
  Task    12 has       2364 integration points.
  Task    13 has       2295 integration points.
  Task    14 has       2359 integration points.
  Task    15 has       2354 integration points.
  Task    16 has       2374 integration points.
  Task    17 has       2316 integration points.
  Task    18 has       2364 integration points.
  Task    19 has       2304 integration points.
  Initializing partition tables, free-atom densities, potentials, etc. across the integration grid (initialize_grid_storage).
  | initialize_grid_storage: Actual outermost partition radius vs. multipole_radius_free
  | (-- VB: in principle, multipole_radius_free should be larger, hence this output)
  | Species        1: Confinement radius =              6.000000000000000 AA, multipole_radius_free =              6.005319660126857 AA.
  | Species        1: outer_partition_radius set to              6.005319660126857 AA .
  | Species        2: Confinement radius =              6.000000000000000 AA, multipole_radius_free =              6.070707973509038 AA.
  | Species        2: outer_partition_radius set to              6.070707973509038 AA .
  | The sparse table of interatomic distances needs       1086.29 kbyte instead of       903.17 kbyte of memory.
  | Using the partition_type stratmann_smoother will reduce your memory usage.
  | Net number of integration points:    46700
  | of which are non-zero points    :    37524
  | Numerical average free-atom electrostatic potential    :    -14.92364788 eV
  Renormalizing the initial density to the exact electron count on the 3D integration grid.
  | Initial density: Formal number of electrons (from input files) :      64.0000000000
  | Integrated number of electrons on 3D grid     :      64.0019718369
  | Charge integration error                      :       0.0019718369
  | Normalization factor for density and gradient :       0.9999691910
  Renormalizing the free-atom superposition density to the exact electron count on the 3D integration grid.
  | Formal number of electrons (from input files) :      64.0000000000
  | Integrated number of electrons on 3D grid     :      64.0019718369
  | Charge integration error                      :       0.0019718369
  | Normalization factor for density and gradient :       0.9999691910
  Obtaining max. number of non-zero basis functions in each batch (get_n_compute_maxes).
  | Maximal number of non-zero basis functions:      955 in task     0
  | Maximal number of non-zero basis functions:      938 in task     1
  | Maximal number of non-zero basis functions:      938 in task     2
  | Maximal number of non-zero basis functions:      972 in task     3
  | Maximal number of non-zero basis functions:      928 in task     4
  | Maximal number of non-zero basis functions:      941 in task     5
  | Maximal number of non-zero basis functions:      946 in task     6
  | Maximal number of non-zero basis functions:      952 in task     7
  | Maximal number of non-zero basis functions:      926 in task     8
  | Maximal number of non-zero basis functions:      974 in task     9
  | Maximal number of non-zero basis functions:      935 in task    10
  | Maximal number of non-zero basis functions:     1037 in task    11
  | Maximal number of non-zero basis functions:      931 in task    12
  | Maximal number of non-zero basis functions:      961 in task    13
  | Maximal number of non-zero basis functions:      960 in task    14
  | Maximal number of non-zero basis functions:      952 in task    15
  | Maximal number of non-zero basis functions:      926 in task    16
  | Maximal number of non-zero basis functions:      975 in task    17
  | Maximal number of non-zero basis functions:      970 in task    18
  | Maximal number of non-zero basis functions:      975 in task    19
  Allocating        3.837 MB for KS_eigenvector_complex
  Integrating Hamiltonian matrix: batch-based integration.
  Time summed over all CPUs for integration: real work        8.815 s, elapsed        9.630 s
  Integrating overlap matrix.
  Time summed over all CPUs for integration: real work        6.475 s, elapsed        6.640 s

  Updating Kohn-Sham eigenvalues and eigenvectors using ELSI and the (modified) LAPACK eigensolver.
  Singularity check in k-point 20, task 0 (analysis for other k-points/tasks may follow below):
  Overlap matrix is not singular
  | Lowest and highest eigenvalues :  0.9274E-03,  0.7072E+01
  Finished singularity check of overlap matrix
  | Time :     0.001 s
  Starting LAPACK eigensolver
  Finished Cholesky decomposition
  | Time :     0.000 s
  Finished transformation to standard eigenproblem
  | Time :     0.000 s
  Finished solving standard eigenproblem
  | Time :     0.002 s
  Finished back-transformation of eigenvectors
  | Time :     0.000 s

  Obtaining occupation numbers and chemical potential using ELSI.
  | Chemical potential (Fermi level):    -5.34136663 eV
  Writing Kohn-Sham eigenvalues.
  K-point:       1 at    0.000000    0.000000    0.000000 (in units of recip. lattice)

  State    Occupation    Eigenvalue [Ha]    Eigenvalue [eV]
      1       2.00000        -436.675499       -11882.54492
      2       2.00000        -380.516170       -10354.37180
      3       2.00000         -54.782140        -1490.69788
      4       2.00000         -48.028932        -1306.93373
      5       2.00000         -48.028932        -1306.93373
      6       2.00000         -48.028932        -1306.93373
      7       2.00000         -46.487274        -1264.98308
      8       2.00000         -40.460629        -1100.98973
      9       2.00000         -40.460629        -1100.98973
     10       2.00000         -40.460629        -1100.98973
     11       2.00000          -7.022150         -191.08242
     12       2.00000          -5.457922         -148.51763
     13       2.00000          -4.940081         -134.42645
     14       2.00000          -4.940081         -134.42645
     15       2.00000          -4.940081         -134.42645
     16       2.00000          -3.647007          -99.24010
     17       2.00000          -3.647007          -99.24010
     18       2.00000          -3.647007          -99.24010
     19       2.00000          -1.523653          -41.46072
     20       2.00000          -1.523653          -41.46072
     21       2.00000          -1.523653          -41.46072
     22       2.00000          -1.523104          -41.44577
     23       2.00000          -1.523104          -41.44577
     24       2.00000          -0.726031          -19.75632
     25       2.00000          -0.726031          -19.75632
     26       2.00000          -0.726031          -19.75632
     27       2.00000          -0.722284          -19.65436
     28       2.00000          -0.722284          -19.65436
     29       2.00000          -0.687952          -18.72012
     30       2.00000          -0.221041           -6.01484
     31       2.00000          -0.221041           -6.01484
     32       2.00000          -0.221041           -6.01484
     33       0.00000          -0.194913           -5.30386
     34       0.00000          -0.069813           -1.89971
     35       0.00000          -0.069813           -1.89971
     36       0.00000          -0.069813           -1.89971
     37       0.00000           0.090998            2.47619
     38       0.00000           0.177766            4.83725
     39       0.00000           0.177766            4.83725
     40       0.00000           0.286487            7.79572
     41       0.00000           0.286487            7.79572
     42       0.00000           0.286487            7.79572
     43       0.00000           0.702295           19.11042

  What follows are estimated values for band gap, HOMO, LUMO, etc.
  | They are estimated on a discrete k-point grid and not necessarily exact.
  | For converged numbers, create a DOS and/or band structure plot on a denser k-grid.

  Highest occupied state (VBM) at     -6.01484236 eV (relative to internal zero)
  | Occupation number:      2.00000000
  | K-point:       1 at    0.000000    0.000000    0.000000 (in units of recip. lattice)

  Lowest unoccupied state (CBM) at    -5.30386438 eV (relative to internal zero)
  | Occupation number:      0.00000011
  | K-point:       1 at    0.000000    0.000000    0.000000 (in units of recip. lattice)

  ESTIMATED overall HOMO-LUMO gap:      0.71097798 eV between HOMO at k-point 1 and LUMO at k-point 1
  | This appears to be a direct band gap.
  The gap value is above 0.2 eV. Unless you are using a very sparse k-point grid,
  this system is most likely an insulator or a semiconductor.
  Calculating total energy contributions from superposition of free atom densities.

  Total energy components:
  | Sum of eigenvalues            :       -2470.11398397 Ha      -67215.22137654 eV
  | XC energy correction          :        -159.88106511 Ha       -4350.58513690 eV
  | XC potential correction       :         207.94697319 Ha        5658.52504317 eV
  | Free-atom electrostatic energy:       -1806.96244465 Ha      -49169.94985856 eV
  | Hartree energy correction     :           0.00000000 Ha           0.00000000 eV
  | Entropy correction            :          -0.00000000 Ha          -0.00000000 eV
  | ---------------------------
  | Total energy                  :       -4229.01052054 Ha     -115077.23132883 eV
  | Total energy, T -> 0          :       -4229.01052054 Ha     -115077.23132883 eV  <-- do not rely on this value for anything but (periodic) metals
  | Electronic free energy        :       -4229.01052054 Ha     -115077.23132883 eV

  Derived energy quantities:
  | Kinetic energy                :        4306.52201284 Ha      117186.42634901 eV
  | Electrostatic energy          :       -8375.65146826 Ha     -227913.07254095 eV
  | Energy correction for multipole
  | error in Hartree potential    :           0.00000000 Ha           0.00000000 eV
  | Sum of eigenvalues per atom                           :      -33607.61068827 eV
  | Total energy (T->0) per atom                          :      -57538.61566442 eV  <-- do not rely on this value for anything but (periodic) metals
  | Electronic free energy per atom                       :      -57538.61566442 eV
  
  --------------------------------------------
  Constructing auxiliary basis (full product) ...
  
  Product basis:
  | charge radius: extent of product basis function
  | field radius: extent of its Coulomb potential
  | Species   l  charge radius    field radius
  |    Ga     0     2.490409 A      2.490409 A
  |    Ga     0     4.760587 A      4.760587 A
  |    Ga     0     4.938422 A      4.938422 A
  |    Ga     0     5.185913 A      5.185913 A
  |    Ga     0     5.249700 A      6.462367 A
  |    Ga     0     5.314271 A      8.353831 A
  |    Ga     0     5.379637 A     19.182898 A
  |    Ga     0     5.445806 A     23.043735 A
  |    Ga     0     5.445806 A     24.797524 A
  |    Ga     0     5.445806 A     26.040259 A
  |    Ga     0     5.445806 A     26.360554 A
  |    Ga     0     5.445806 A     26.360554 A
  |    Ga     1     2.712910 A      2.712910 A
  |    Ga     1     4.370145 A      4.370145 A
  |    Ga     1     4.878418 A      4.878418 A
  |    Ga     1     5.122901 A      5.122901 A
  |    Ga     1     5.185913 A      5.185913 A
  |    Ga     1     5.314271 A      8.456583 A
  |    Ga     1     5.379637 A     15.968921 A
  |    Ga     1     5.445806 A     21.944005 A
  |    Ga     1     5.445806 A     24.496220 A
  |    Ga     1     5.445806 A     25.723855 A
  |    Ga     1     5.512790 A     26.360554 A
  |    Ga     1     5.512790 A     26.684790 A
  |    Ga     2     3.464337 A      3.464337 A
  |    Ga     2     4.478311 A      4.478311 A
  |    Ga     2     5.060655 A      5.060655 A
  |    Ga     2     5.249700 A      5.249700 A
  |    Ga     2     5.314271 A      6.306278 A
  |    Ga     2     5.314271 A      8.880387 A
  |    Ga     2     5.379637 A     13.293426 A
  |    Ga     2     5.445806 A     21.153789 A
  |    Ga     2     5.445806 A     23.904551 A
  |    Ga     2     5.512790 A     25.411296 A
  |    Ga     2     5.512790 A     26.360554 A
  |    Ga     2     5.512790 A     26.684790 A
  |    Ga     3     4.760587 A      4.760587 A
  |    Ga     3     5.122901 A      5.122901 A
  |    Ga     3     5.249700 A      5.379637 A
  |    Ga     3     5.249700 A      5.249700 A
  |    Ga     3     5.314271 A      7.668687 A
  |    Ga     3     5.379637 A     15.393871 A
  |    Ga     3     5.379637 A     21.677373 A
  |    Ga     3     5.445806 A     23.904551 A
  |    Ga     3     5.445806 A     25.411296 A
  |    Ga     3     5.445806 A     26.360554 A
  |    Ga     4     4.878418 A      4.878418 A
  |    Ga     4     5.249700 A      5.249700 A
  |    Ga     4     5.314271 A     17.184268 A
  |    Ga     4     5.379637 A     22.213917 A
  |    Ga     4     5.379637 A     24.198578 A
  |    Ga     4     5.379637 A     25.411296 A
  |    Ga     5     5.249700 A     19.899490 A
  |    Ga     5     5.314271 A     23.043735 A
  |    Ga     5     5.314271 A     24.797524 A
  |    Ga     6     5.185913 A     23.043735 A
  |    As     0     2.810328 A      2.810328 A
  |    As     0     3.957454 A      3.957454 A
  |    As     0     4.417729 A      4.417729 A
  |    As     0     4.812422 A      4.812422 A
  |    As     0     5.115757 A      5.115757 A
  |    As     0     5.306860 A     10.523381 A
  |    As     0     5.306860 A     10.395516 A
  |    As     0     5.372135 A     20.116164 A
  |    As     0     5.438212 A     23.294644 A
  |    As     0     5.438212 A     25.067530 A
  |    As     0     5.505102 A     26.003947 A
  |    As     0     5.505102 A     26.647579 A
  |    As     0     5.438212 A     26.323796 A
  |    As     1     2.227827 A      2.227827 A
  |    As     1     3.861867 A      3.861867 A
  |    As     1     4.871615 A      4.871615 A
  |    As     1     4.992194 A      4.992194 A
  |    As     1     5.115757 A      5.115757 A
  |    As     1     5.242379 A      7.847538 A
  |    As     1     5.372135 A     11.050763 A
  |    As     1     5.438212 A     19.391769 A
  |    As     1     5.505102 A     23.294644 A
  |    As     1     5.438212 A     24.164834 A
  |    As     1     5.438212 A     25.687984 A
  |    As     1     5.438212 A     26.323796 A
  |    As     1     5.438212 A     26.647579 A
  |    As     2     3.334928 A      3.334928 A
  |    As     2     4.364051 A      4.364051 A
  |    As     2     4.753949 A      4.753949 A
  |    As     2     5.053598 A      5.053598 A
  |    As     2     5.178681 A      5.178681 A
  |    As     2     5.306860 A     11.604575 A
  |    As     2     5.372135 A     20.116164 A
  |    As     2     5.438212 A     23.294644 A
  |    As     2     5.438212 A     25.067530 A
  |    As     2     5.505102 A     26.323796 A
  |    As     2     5.505102 A     26.647579 A
  |    As     3     4.311025 A      4.311025 A
  |    As     3     4.992194 A      4.992194 A
  |    As     3     5.242379 A      5.242379 A
  |    As     3     5.242379 A      5.242379 A
  |    As     3     5.306860 A      7.657993 A
  |    As     3     5.372135 A     13.438170 A
  |    As     3     5.372135 A     15.752892 A
  |    As     3     5.438212 A     22.182940 A
  |    As     3     5.438212 A     24.462061 A
  |    As     3     5.505102 A     25.687984 A
  |    As     3     5.505102 A     26.323796 A
  |    As     4     5.053598 A      5.053598 A
  |    As     4     5.242379 A      5.242379 A
  |    As     4     5.372135 A     12.641364 A
  |    As     4     5.438212 A     18.693460 A
  |    As     4     5.438212 A     22.455791 A
  |    As     4     5.438212 A     24.462061 A
  |    As     4     5.438212 A     25.687984 A
  |    As     5     5.242379 A     19.630288 A
  |    As     5     5.306860 A     23.294644 A
  |    As     5     5.372135 A     24.762945 A
  |    As     6     5.178681 A     23.011601 A

  | Shrink_full_auxil_basis : there are      115  radial auxiliary wave functions
                            accepted and     181 rejected.
  | Shrink_full_auxil_basis : there are totally               91623 partial auxiliary wave functions.
  prodbas_tasks_distribution_pbc not up to date - distributing tasks.
 
  | Number of product basis functions per thread :  4582
  Parallel distribution of product basis not up to date - distributing tasks.
 
  | Number of product basis functions per thread :    29
  | Minimal requirement for computer memory :           0.013 Gbs
          Checking for symmetries
  Found symmetry 1.00 0.00 0.00  0.00 1.00 0.00  0.00 0.00 1.00  around 0.00 0.00 0.00
  Found symmetry 1.00 0.00 0.00  0.00-1.00 0.00  0.00 0.00-1.00  around 0.00 0.00 0.00
  Found symmetry-1.00 0.00 0.00  0.00 1.00 0.00  0.00 0.00-1.00  around 0.00 0.00 0.00
  Found symmetry-1.00 0.00 0.00  0.00-1.00 0.00  0.00 0.00 1.00  around 0.00 0.00 0.00
  Found symmetry 0.00 0.00 1.00  1.00 0.00 0.00  0.00 1.00 0.00  around 0.00 0.00 0.00
  Found symmetry 0.00 0.00-1.00  1.00 0.00 0.00  0.00-1.00 0.00  around 0.00 0.00 0.00
  Found symmetry 0.00 0.00-1.00 -1.00 0.00 0.00  0.00 1.00 0.00  around 0.00 0.00 0.00
  Found symmetry 0.00 0.00 1.00 -1.00 0.00 0.00  0.00-1.00 0.00  around 0.00 0.00 0.00
  Found symmetry 0.00 1.00 0.00  0.00 0.00 1.00  1.00 0.00 0.00  around 0.00 0.00 0.00
  Found symmetry 0.00-1.00 0.00  0.00 0.00-1.00  1.00 0.00 0.00  around 0.00 0.00 0.00
  Found symmetry 0.00 1.00 0.00  0.00 0.00-1.00 -1.00 0.00 0.00  around 0.00 0.00 0.00
  Found symmetry 0.00-1.00 0.00  0.00 0.00 1.00 -1.00 0.00 0.00  around 0.00 0.00 0.00
  Found symmetry 0.00 1.00 0.00  1.00 0.00 0.00  0.00 0.00 1.00  around 0.00 0.00 0.00
  Found symmetry 0.00-1.00 0.00  1.00 0.00 0.00  0.00 0.00-1.00  around 0.00 0.00 0.00
  Found symmetry 0.00 1.00 0.00 -1.00 0.00 0.00  0.00 0.00-1.00  around 0.00 0.00 0.00
  Found symmetry 0.00-1.00 0.00 -1.00 0.00 0.00  0.00 0.00 1.00  around 0.00 0.00 0.00
  Found symmetry 1.00 0.00 0.00  0.00 0.00 1.00  0.00 1.00 0.00  around 0.00 0.00 0.00
  Found symmetry 1.00 0.00 0.00  0.00 0.00-1.00  0.00-1.00 0.00  around 0.00 0.00 0.00
  Found symmetry-1.00 0.00 0.00  0.00 0.00-1.00  0.00 1.00 0.00  around 0.00 0.00 0.00
  Found symmetry-1.00 0.00 0.00  0.00 0.00 1.00  0.00-1.00 0.00  around 0.00 0.00 0.00
  Found symmetry 0.00 0.00 1.00  0.00 1.00 0.00  1.00 0.00 0.00  around 0.00 0.00 0.00
  Found symmetry 0.00 0.00-1.00  0.00-1.00 0.00  1.00 0.00 0.00  around 0.00 0.00 0.00
  Found symmetry 0.00 0.00-1.00  0.00 1.00 0.00 -1.00 0.00 0.00  around 0.00 0.00 0.00
  Found symmetry 0.00 0.00 1.00  0.00-1.00 0.00 -1.00 0.00 0.00  around 0.00 0.00 0.00
  Found 24 symmetry operations for current configuration
  Irreducible k points #          868
  -----------------------------------------
  --- Initializing Fock matrix calculations
  -----------------------------------------
  screening_threshold (crit_val) =  0.000000100000
  coul_mat_threshold =  0.000000000100
  Trying to make the workload more even by internally splitting atoms into fractions
  Atom:            1  Basis/atom:    34.0000000000000
  Atom:            2  Basis/atom:    34.0000000000000
  -----------------------------------------------------
  Dividing atoms among tasks for exact exchange energy:
  Atom:     1 Weight:   278.00
  Atom:     2 Weight:   278.00
  Atom:     3 Weight:   293.00
  Atom:     4 Weight:   293.00

  Average weight per task:   57.100

  Number of "big" (above average) atoms  :     4
  Number of "small" (below average) atoms:     0
  All atoms have above average work per task
  Atoms will be divided among tasks to get best load distribution

  Atom division among tasks:
  Atom     1: (initial) task:     0, # of tasks:     5
  Atom     2: (initial) task:     5, # of tasks:     5
  Atom     3: (initial) task:    10, # of tasks:     5
  Atom     4: (initial) task:    15, # of tasks:     5

  -----------------------------------------------------
 There are now:            4  "atoms" instead of:            2
       new       old  bas/atom
         1         1        17
         2         1        17
         3         2        17
         4         2        17
  Number of super-cells in X Y Z:       6       6       6
  Number of atoms pairs total:         2206
  Atom pair distribution:
  Cell:       -3      -1       1 atom pairs:        4
  Cell:       -3      -1       2 atom pairs:        4
  Cell:       -3       0       0 atom pairs:        4
  Cell:       -3       0       1 atom pairs:       12
  Cell:       -3       0       2 atom pairs:       12
  Cell:       -3       1      -1 atom pairs:        4
  Cell:       -3       1       0 atom pairs:       12
  Cell:       -3       1       1 atom pairs:       16
  Cell:       -3       1       2 atom pairs:       16
  Cell:       -3       2      -1 atom pairs:        4
  Cell:       -3       2       0 atom pairs:       12
  Cell:       -3       2       1 atom pairs:       16
  Cell:       -2      -2       1 atom pairs:        4
  Cell:       -2      -2       2 atom pairs:        5
  Cell:       -2      -1      -1 atom pairs:        4
  Cell:       -2      -1       0 atom pairs:       12
  Cell:       -2      -1       1 atom pairs:       16
  Cell:       -2      -1       2 atom pairs:       16
  Cell:       -2      -1       3 atom pairs:       16
  Cell:       -2       0      -1 atom pairs:       12
  Cell:       -2       0       0 atom pairs:       16
  Cell:       -2       0       1 atom pairs:       16
  Cell:       -2       0       2 atom pairs:       16
  Cell:       -2       0       3 atom pairs:       12
  Cell:       -2       1      -2 atom pairs:        4
  Cell:       -2       1      -1 atom pairs:       16
  Cell:       -2       1       0 atom pairs:       16
  Cell:       -2       1       1 atom pairs:       16
  Cell:       -2       1       2 atom pairs:       16
  Cell:       -2       1       3 atom pairs:        4
  Cell:       -2       2      -2 atom pairs:        5
  Cell:       -2       2      -1 atom pairs:       16
  Cell:       -2       2       0 atom pairs:       16
  Cell:       -2       2       1 atom pairs:       16
  Cell:       -2       2       2 atom pairs:        5
  Cell:       -2       3      -1 atom pairs:       16
  Cell:       -2       3       0 atom pairs:       12
  Cell:       -2       3       1 atom pairs:        4
  Cell:       -1      -3       1 atom pairs:        4
  Cell:       -1      -3       2 atom pairs:        4
  Cell:       -1      -2      -1 atom pairs:        4
  Cell:       -1      -2       0 atom pairs:       12
  Cell:       -1      -2       1 atom pairs:       16
  Cell:       -1      -2       2 atom pairs:       16
  Cell:       -1      -2       3 atom pairs:       16
  Cell:       -1      -1      -2 atom pairs:        4
  Cell:       -1      -1      -1 atom pairs:       12
  Cell:       -1      -1       0 atom pairs:       16
  Cell:       -1      -1       1 atom pairs:       16
  Cell:       -1      -1       2 atom pairs:       16
  Cell:       -1      -1       3 atom pairs:       16
  Cell:       -1       0      -2 atom pairs:       12
  Cell:       -1       0      -1 atom pairs:       16
  Cell:       -1       0       0 atom pairs:       16
  Cell:       -1       0       1 atom pairs:       16
  Cell:       -1       0       2 atom pairs:       16
  Cell:       -1       0       3 atom pairs:       12
  Cell:       -1       1      -3 atom pairs:        4
  Cell:       -1       1      -2 atom pairs:       16
  Cell:       -1       1      -1 atom pairs:       16
  Cell:       -1       1       0 atom pairs:       16
  Cell:       -1       1       1 atom pairs:       16
  Cell:       -1       1       2 atom pairs:       16
  Cell:       -1       1       3 atom pairs:        4
  Cell:       -1       2      -3 atom pairs:        4
  Cell:       -1       2      -2 atom pairs:       16
  Cell:       -1       2      -1 atom pairs:       16
  Cell:       -1       2       0 atom pairs:       16
  Cell:       -1       2       1 atom pairs:       16
  Cell:       -1       2       2 atom pairs:        4
  Cell:       -1       3      -2 atom pairs:       16
  Cell:       -1       3      -1 atom pairs:       16
  Cell:       -1       3       0 atom pairs:       12
  Cell:       -1       3       1 atom pairs:        4
  Cell:        0      -3       0 atom pairs:        4
  Cell:        0      -3       1 atom pairs:       12
  Cell:        0      -3       2 atom pairs:       12
  Cell:        0      -2      -1 atom pairs:       12
  Cell:        0      -2       0 atom pairs:       16
  Cell:        0      -2       1 atom pairs:       16
  Cell:        0      -2       2 atom pairs:       16
  Cell:        0      -2       3 atom pairs:       12
  Cell:        0      -1      -2 atom pairs:       12
  Cell:        0      -1      -1 atom pairs:       16
  Cell:        0      -1       0 atom pairs:       16
  Cell:        0      -1       1 atom pairs:       16
  Cell:        0      -1       2 atom pairs:       16
  Cell:        0      -1       3 atom pairs:       12
  Cell:        0       0      -3 atom pairs:        4
  Cell:        0       0      -2 atom pairs:       16
  Cell:        0       0      -1 atom pairs:       16
  Cell:        0       0       0 atom pairs:       16
  Cell:        0       0       1 atom pairs:       16
  Cell:        0       0       2 atom pairs:       16
  Cell:        0       0       3 atom pairs:        4
  Cell:        0       1      -3 atom pairs:       12
  Cell:        0       1      -2 atom pairs:       16
  Cell:        0       1      -1 atom pairs:       16
  Cell:        0       1       0 atom pairs:       16
  Cell:        0       1       1 atom pairs:       16
  Cell:        0       1       2 atom pairs:       12
  Cell:        0       2      -3 atom pairs:       12
  Cell:        0       2      -2 atom pairs:       16
  Cell:        0       2      -1 atom pairs:       16
  Cell:        0       2       0 atom pairs:       16
  Cell:        0       2       1 atom pairs:       12
  Cell:        0       3      -2 atom pairs:       12
  Cell:        0       3      -1 atom pairs:       12
  Cell:        0       3       0 atom pairs:        4
  Cell:        1      -3      -1 atom pairs:        4
  Cell:        1      -3       0 atom pairs:       12
  Cell:        1      -3       1 atom pairs:       16
  Cell:        1      -3       2 atom pairs:       16
  Cell:        1      -2      -2 atom pairs:        4
  Cell:        1      -2      -1 atom pairs:       16
  Cell:        1      -2       0 atom pairs:       16
  Cell:        1      -2       1 atom pairs:       16
  Cell:        1      -2       2 atom pairs:       16
  Cell:        1      -2       3 atom pairs:        4
  Cell:        1      -1      -3 atom pairs:        4
  Cell:        1      -1      -2 atom pairs:       16
  Cell:        1      -1      -1 atom pairs:       16
  Cell:        1      -1       0 atom pairs:       16
  Cell:        1      -1       1 atom pairs:       16
  Cell:        1      -1       2 atom pairs:       16
  Cell:        1      -1       3 atom pairs:        4
  Cell:        1       0      -3 atom pairs:       12
  Cell:        1       0      -2 atom pairs:       16
  Cell:        1       0      -1 atom pairs:       16
  Cell:        1       0       0 atom pairs:       16
  Cell:        1       0       1 atom pairs:       16
  Cell:        1       0       2 atom pairs:       12
  Cell:        1       1      -3 atom pairs:       16
  Cell:        1       1      -2 atom pairs:       16
  Cell:        1       1      -1 atom pairs:       16
  Cell:        1       1       0 atom pairs:       16
  Cell:        1       1       1 atom pairs:       12
  Cell:        1       1       2 atom pairs:        4
  Cell:        1       2      -3 atom pairs:       16
  Cell:        1       2      -2 atom pairs:       16
  Cell:        1       2      -1 atom pairs:       16
  Cell:        1       2       0 atom pairs:       12
  Cell:        1       2       1 atom pairs:        4
  Cell:        1       3      -2 atom pairs:        4
  Cell:        1       3      -1 atom pairs:        4
  Cell:        2      -3      -1 atom pairs:        4
  Cell:        2      -3       0 atom pairs:       12
  Cell:        2      -3       1 atom pairs:       16
  Cell:        2      -2      -2 atom pairs:        5
  Cell:        2      -2      -1 atom pairs:       16
  Cell:        2      -2       0 atom pairs:       16
  Cell:        2      -2       1 atom pairs:       16
  Cell:        2      -2       2 atom pairs:        5
  Cell:        2      -1      -3 atom pairs:        4
  Cell:        2      -1      -2 atom pairs:       16
  Cell:        2      -1      -1 atom pairs:       16
  Cell:        2      -1       0 atom pairs:       16
  Cell:        2      -1       1 atom pairs:       16
  Cell:        2      -1       2 atom pairs:        4
  Cell:        2       0      -3 atom pairs:       12
  Cell:        2       0      -2 atom pairs:       16
  Cell:        2       0      -1 atom pairs:       16
  Cell:        2       0       0 atom pairs:       16
  Cell:        2       0       1 atom pairs:       12
  Cell:        2       1      -3 atom pairs:       16
  Cell:        2       1      -2 atom pairs:       16
  Cell:        2       1      -1 atom pairs:       16
  Cell:        2       1       0 atom pairs:       12
  Cell:        2       1       1 atom pairs:        4
  Cell:        2       2      -2 atom pairs:        5
  Cell:        2       2      -1 atom pairs:        4
  Cell:        3      -2      -1 atom pairs:       16
  Cell:        3      -2       0 atom pairs:       12
  Cell:        3      -2       1 atom pairs:        4
  Cell:        3      -1      -2 atom pairs:       16
  Cell:        3      -1      -1 atom pairs:       16
  Cell:        3      -1       0 atom pairs:       12
  Cell:        3      -1       1 atom pairs:        4
  Cell:        3       0      -2 atom pairs:       12
  Cell:        3       0      -1 atom pairs:       12
  Cell:        3       0       0 atom pairs:        4
  Cell:        3       1      -2 atom pairs:        4
  Cell:        3       1      -1 atom pairs:        4
 sparsity of pfbvk:   1.000000    
  Number of atoms pairs in BvK cells:         2206
  Initializing work distribution for fock matrix calculation
  Task     0 : Coulomb matrix distribution changed.
  Task     1 : Coulomb matrix distribution changed.
  Task     2 : Coulomb matrix distribution changed.
  Task     3 : Coulomb matrix distribution changed.
  Task     4 : Coulomb matrix distribution changed.
  Task     5 : Coulomb matrix distribution changed.
  Task     6 : Coulomb matrix distribution changed.
  Task     7 : Coulomb matrix distribution changed.
  Task     8 : Coulomb matrix distribution changed.
  Task     9 : Coulomb matrix distribution changed.
  Task    10 : Coulomb matrix distribution changed.
  Task    11 : Coulomb matrix distribution changed.
  Task    12 : Coulomb matrix distribution changed.
  Task    13 : Coulomb matrix distribution changed.
  Task    14 : Coulomb matrix distribution changed.
  Task    15 : Coulomb matrix distribution changed.
  Task    16 : Coulomb matrix distribution changed.
  Task    17 : Coulomb matrix distribution changed.
  Task    18 : Coulomb matrix distribution changed.
  Task    19 : Coulomb matrix distribution changed.
  Overall Coulomb matrix distribution changed.
  Coulomb matrix subdivision:
  Task     0 atom     1 has        346 Coulomb matrix cells
  Task      0: my_n_atoms2:      1 my_atom_list:      1
  Task      1: my_n_atoms2:      1 my_atom_list:      1
  Task      2: my_n_atoms2:      1 my_atom_list:      1
  Task      3: my_n_atoms2:      1 my_atom_list:      1
  Task      4: my_n_atoms2:      1 my_atom_list:      1
  Task      5: my_n_atoms2:      1 my_atom_list:      2
  Task      6: my_n_atoms2:      1 my_atom_list:      2
  Task      7: my_n_atoms2:      1 my_atom_list:      2
  Task      8: my_n_atoms2:      1 my_atom_list:      2
  Task      9: my_n_atoms2:      1 my_atom_list:      2
  Task     10: my_n_atoms2:      1 my_atom_list:      3
  Task     11: my_n_atoms2:      1 my_atom_list:      3
  Task     12: my_n_atoms2:      1 my_atom_list:      3
  Task     13: my_n_atoms2:      1 my_atom_list:      3
  Task     14: my_n_atoms2:      1 my_atom_list:      3
  Task     15: my_n_atoms2:      1 my_atom_list:      4
  Task     16: my_n_atoms2:      1 my_atom_list:      4
  Task     17: my_n_atoms2:      1 my_atom_list:      4
  Task     18: my_n_atoms2:      1 my_atom_list:      4
  Task     19: my_n_atoms2:      1 my_atom_list:      4
  Task      0: my_n_atom_pairs:    111
  Task      1: my_n_atom_pairs:    111
  Task      2: my_n_atom_pairs:    111
  Task      3: my_n_atom_pairs:    111
  Task      4: my_n_atom_pairs:    112
  Task      5: my_n_atom_pairs:    110
  Task      6: my_n_atom_pairs:    110
  Task      7: my_n_atom_pairs:    110
  Task      8: my_n_atom_pairs:    110
  Task      9: my_n_atom_pairs:    110
  Task     10: my_n_atom_pairs:    110
  Task     11: my_n_atom_pairs:    110
  Task     12: my_n_atom_pairs:    110
  Task     13: my_n_atom_pairs:    110
  Task     14: my_n_atom_pairs:    110
  Task     15: my_n_atom_pairs:    110
  Task     16: my_n_atom_pairs:    110
  Task     17: my_n_atom_pairs:    110
  Task     18: my_n_atom_pairs:    110
  Task     19: my_n_atom_pairs:    110
  Max. memory consumption per node for Hartree Fock matrix + Pulay mixing [GB]:      2.30
  --- Initializing LVL triples, type HSE
  | Storage requirements for basis-basbas products (processor-local):
  |   Species Ga: n_prodsfn:  1096; storage:       34.25 MiB.
  |   Species As: n_prodsfn:  1151; storage:       35.97 MiB.

  --- Initializing Coulomb matrix calculations, type HSE
  Preparing TB like auxiliary 2-center HSE-pot matrix
  SBT integration errors (all should be 'small'):
  large logFT aliasing -> increase N/lnrange
  large SBT aliasing -> decrease lnk0 & increase lnk0+lnrange
  large SBT ringing -> decrease lnr0 & increase lnr0+lnrange
  |            El't  L: logFT-al.   small-k   large-k   small-r   large-r
  | Need to store 14083 splines of   238 points taking      26408 KiB.
  | Spline reduction from  4096 to   238 points by (cutting and)     1 x coarsening gives error:  0.00E+00
  | Maximum value outside interaction range:  1.15E-13
  Finished with initialize_tb_auxmat/lvl_triples, time:        0.758
  Upper limit for memory consumption per node [GB] for Coulomb matrices if no compression occurs:      45.072
  Upper limit for temporary arrays in Coulomb matrix initalization [GB]:      6.00
  --- Calculating Coulomb matrices
  --- Calculating Coulomb matrices
  Max. memory consumption per node for Coulomb matrix [GB]:      1.33
  Time to calculate Coulomb Matrices   :      190.187
   Number of Coulomb matrix elements:
  | Task     0 total:       49472046, > threshold:        4005954, stored:        8224544
[...]
     73       0.00000                       3.255750           3.255750             4.577725
     74       0.00000                       3.255750           3.255750             0.000000
     75       0.00000                       5.768788           5.769090             2.513340
     76       0.00000                       5.768788           5.769090             0.000000
     77       0.00000                       5.768791           5.769113             0.000022
     78       0.00000                       5.768791           5.769113             0.000000
     79       0.00000                       8.777767           8.756281             2.987169
     80       0.00000                       8.777767           8.756281             0.000000
     81       0.00000                       8.777773           8.790074             0.033793
     82       0.00000                       8.777773           8.790074             0.000000
     83       0.00000                       8.777775           8.790179             0.000105
     84       0.00000                       8.777775           8.790179             0.000000
     85       0.00000                      20.453402          20.453402            11.663223
     86       0.00000                      20.453402          20.453402             0.000000

  What follows are estimated values for band gap, HOMO, LUMO, etc.
  | They are estimated on a discrete k-point grid and not necessarily exact.
  | For converged numbers, create a DOS and/or band structure plot on a denser k-grid.

  Highest occupied state (VBM) at     -5.83137053 eV (relative to internal zero)
  | Occupation number:      1.00000000
  | K-point:       1 at    0.000000    0.000000    0.000000 (in units of recip. lattice)

  Lowest unoccupied state (CBM) at    -4.62055308 eV (relative to internal zero)
  | Occupation number:      0.00000009
  | K-point:       1 at    0.000000    0.000000    0.000000 (in units of recip. lattice)

  ESTIMATED overall HOMO-LUMO gap:      1.21081745 eV between HOMO at k-point 1 and LUMO at k-point 1
  | This appears to be a direct band gap.
  The gap value is above 0.2 eV. Unless you are using a very sparse k-point grid,
  this system is most likely an insulator or a semiconductor.
  Calculating total density of states ...
  | Chemical potential is  -4.657438 eV.
  | writing DOS (shifted by electron chemical potential) to file KS_DOS_total_tetrahedron.dat
  | writing DOS (raw data) to file KS_DOS_total_raw_tetrahedron.dat


  Spin-orbit coupling                                     :  max(cpu_time)    wall_clock(cpu1)
  | Computing matrix elements for SOC operator            :          3.903               3.902
  | Constructing second-variational Hamiltonian           :          0.192               0.196
  | Diagonalizing second-variational Hamiltonian          :          0.412               0.412
  | Constructing SOC-perturbed eigenvectors               :          0.023               0.022
  | Syncing data and calculating occupations              :          0.082               0.077
  | Writing out data, calculating band gaps, etc.         :          0.030               0.037
  | Total SOC time                                        :          4.654               4.654

  Partial memory accounting:
  | Current value for overall tracked memory usage:
  |   Minimum:       92.851 MB (on task  9)
  |   Maximum:       96.489 MB (on task 10)
  |   Average:       94.944 MB
  | Peak value for overall tracked memory usage:
  |   Minimum:      212.885 MB (on task  8 after allocating fock_matrix_tmp)
  |   Maximum:      527.025 MB (on task 10 after allocating fock_matrix_tmp)
  |   Average:      302.963 MB
  | Largest tracked array allocation so far:
  |   Minimum:      190.162 MB (aux_mat on task  3)
  |   Maximum:      413.462 MB (fock_matrix_tmp on task 10)
  |   Average:      218.332 MB
  Note:  These values currently only include a subset of arrays which are explicitly tracked.
  The "true" memory usage will be greater.
 ------------------------------------------------------------

  ------------------------------------------------------------
                   Starting Mulliken Analysis
  ------------------------------------------------------------

  Performing scalar-relativistic Mulliken charge analysis on all atoms.
  Full analysis (per state, per k-point, etc.) will NOT be written to separate file 'Mulliken.out.no_soc'.
  This file can be requested by stating 'output mulliken' explicitly.
  Summary of the per-atom charge analysis:
  |
  |  atom       electrons          charge             l=0             l=1             l=2             l=3
  |     1       30.711982        0.288018        7.160031       13.329098       10.184331        0.038523
  |     2       33.288018       -0.288018        7.742619       15.385118       10.137053        0.023228
  |
  | Total       64.000000       -0.000000
 
  Calculating angular momentum projected density of states ...
  | Chemical potential is  -4.658054 eV.
  | writing   projected DOS (shifted by the chemical potential) for species Ga to file Ga_l_proj_dos_tetrahedron.dat.no_soc.
  | writing   projected DOS (raw data) for species Ga to file Ga_l_proj_dos_tetrahedron_raw.dat.no_soc.
  | writing   projected DOS (shifted by the chemical potential) for species As to file As_l_proj_dos_tetrahedron.dat.no_soc.
  | writing   projected DOS (raw data) for species As to file As_l_proj_dos_tetrahedron_raw.dat.no_soc.


  Performing spin-orbit-coupled Mulliken charge analysis on all atoms.
*** output_mulliken expected pure occ_numbers
*** sum(occ_numbers) =  5.5296000000182525E+04 instead of  6.4000000000000000E+01
  Full analysis (per state, per k-point, etc.) will NOT be written to separate file 'Mulliken.out.no_soc'.
  This file can be requested by stating 'output mulliken' explicitly.
  Summary of the per-atom charge analysis:
  |
  |  atom       electrons          charge             l=0             l=1             l=2             l=3
  |     1       30.713225        0.286775        7.160647       13.329727       10.184305        0.038545
  |     2       33.286775       -0.286775        7.742727       15.383603       10.137176        0.023269
  |
  | Total       64.000000       -0.000000
 
  Calculating angular momentum projected density of states ...
  | Chemical potential is  -4.657438 eV.
  | writing   projected DOS (shifted by the chemical potential) for species Ga to file Ga_l_proj_dos_tetrahedron.dat.
  | writing   projected DOS (raw data) for species Ga to file Ga_l_proj_dos_tetrahedron_raw.dat.
  | writing   projected DOS (shifted by the chemical potential) for species As to file As_l_proj_dos_tetrahedron.dat.
  | writing   projected DOS (raw data) for species As to file As_l_proj_dos_tetrahedron_raw.dat.

  Mulliken analysis                                       :  max(cpu_time)    wall_clock(cpu1)
  | Time for Mulliken analysis (scalar relativistic)      :          3.805               3.824
  | Time for Mulliken analysis (spin-orbit coupled)       :         15.154              15.173
  | Total time for Mulliken analysis                      :         18.959              18.997
------------------------------------------------------------

  -------------------------------------------------------------------
  Writing the requested band structure output (LAPACK version):
  -------------------------------------------------------------------

  Integrating Hamiltonian matrix: batch-based integration.
  Time summed over all CPUs for integration: real work        8.723 s, elapsed        8.956 s
  Integrating SOC matrix: batch-based integration p2 version.
  Allocating        0.117 MB for dist_tab
  Allocating        0.117 MB for dist_tab_sq
  Allocating        0.351 MB for dir_tab
  Allocating        0.013 MB for i_basis_fns
  Allocating        0.402 MB for i_basis_fns_inv
  Allocating        0.013 MB for i_atom_fns
  Allocating        2.295 MB for gradient_basis_wave
  Allocating        0.005 MB for ylm_tab
  Allocating        0.002 MB for radial_wave
  Allocating        0.002 MB for radial_wave_deriv
  Allocating        0.010 MB for i_basis
  Allocating        6.958 MB for soc_shell
  Allocating        0.012 MB for cartesians
  Allocating        0.014 MB for sum_gradient
  Allocating        0.029 MB for sum_hessian
  Allocating        0.001 MB for potential_shell

  Treating all   21 k-points in band plot segment #   1:

  Overlap matrix is not singular
  | Lowest and highest eigenvalues :  0.1184E-02,  0.6604E+01
  Finished singularity check of overlap matrix
  | Time :     0.001 s
  Starting LAPACK eigensolver
  Finished Cholesky decomposition
  | Time :     0.000 s
  Finished transformation to standard eigenproblem
  | Time :     0.000 s
  Finished solving standard eigenproblem
  | Time :     0.001 s
  Finished back-transformation of eigenvectors
  | Time :     0.000 s

  Scalar-relativistic "band gap" along reciprocal space direction number:    1
  | Lowest unoccupied state:      -4.62055311 eV
  | Highest occupied state :      -5.94369364 eV
  | Energy difference      :       1.32314053 eV


Spin-orbit-coupled "band gap" along reciprocal space direction number:    1
  | Lowest unoccupied state:      -4.62055308 eV
  | Highest occupied state :      -5.83137053 eV
  | Energy difference      :       1.21081745 eV


  Treating all   21 k-points in band plot segment #   2:


  Scalar-relativistic "band gap" along reciprocal space direction number:    2
  | Lowest unoccupied state:      -4.62055311 eV
  | Highest occupied state :      -5.94369364 eV
  | Energy difference      :       1.32314053 eV


Spin-orbit-coupled "band gap" along reciprocal space direction number:    2
  | Lowest unoccupied state:      -4.62055308 eV
  | Highest occupied state :      -5.83137053 eV
  | Energy difference      :       1.21081745 eV


  Treating all   21 k-points in band plot segment #   3:


  Scalar-relativistic "band gap" along reciprocal space direction number:    3
  | Lowest unoccupied state:      -3.87117794 eV
  | Highest occupied state :      -8.86539472 eV
  | Energy difference      :       4.99421678 eV


Spin-orbit-coupled "band gap" along reciprocal space direction number:    3
  | Lowest unoccupied state:      -3.87035915 eV
  | Highest occupied state :      -8.82095741 eV
  | Energy difference      :       4.95059827 eV


  Treating all   21 k-points in band plot segment #   4:


  Scalar-relativistic "band gap" along reciprocal space direction number:    4
  | Lowest unoccupied state:      -4.09975653 eV
  | Highest occupied state :      -7.04348242 eV
  | Energy difference      :       2.94372589 eV


Spin-orbit-coupled "band gap" along reciprocal space direction number:    4
  | Lowest unoccupied state:      -4.09947898 eV
  | Highest occupied state :      -6.94437050 eV
  | Energy difference      :       2.84489152 eV

  Scalar-relativistic "band gap" of total set of bands:
  | Lowest unoccupied state:      -4.62055311 eV
  | Highest occupied state :      -5.94369364 eV
  | Energy difference      :       1.32314053 eV

  Spin-orbit-coupled "band gap" of total set of bands:
  | Lowest unoccupied state:      -4.62055308 eV
  | Highest occupied state :      -5.83137053 eV
  | Energy difference      :       1.21081745 eV


  Band Structure                                          :  max(cpu_time) wall_clock(cpu1)
  | Total Time                                            :         60.873           60.897
------------------------------------------------------------

------------------------------------------------------------------------------
  Final output of selected total energy values:

  The following output summarizes some interesting total energy values
  at the end of a run (AFTER all relaxation, molecular dynamics, etc.).

  | Total energy of the DFT / Hartree-Fock s.c.f. calculation      :        -115078.906678080 eV
  | Final zero-broadening corrected energy (caution - metals only) :        -115078.906678080 eV
  | Total energy after non-SC SOC correction (DO NOT USE)          :        -115078.959191618 eV
  | For reference only, the value of 1 Hartree used in FHI-aims is :             27.211384500 eV
  | For reference only, the overall average (free atom contribution
  | + realspace contribution) of the electrostatic potential after
  | s.c.f. convergence is                                          :            -14.730423868 eV

  Before relying on these values, please be sure to understand exactly which
  total energy value is referred to by a given number. Different objects may
  all carry the same name 'total energy'. Definitions:

  Total energy of the DFT / Hartree-Fock s.c.f. calculation:
  | Note that this energy does not include ANY quantities calculated after the
  | s.c.f. cycle, in particular not ANY RPA, MP2, etc. many-body perturbation terms.

  Final zero-broadening corrected energy:
  | For metallic systems only, a broadening of the occupation numbers at the Fermi
  | level can be extrapolated back to zero broadening by an electron-gas inspired
  | formula. For all systems that are not real metals, this value can be
  | meaningless and should be avoided.

------------------------------------------------------------------------------
  Methods described in the following list of references were used in this FHI-aims run.
  If you publish the results, please make sure to cite these reference if they apply.
  FHI-aims is an academic code, and for our developers (often, Ph.D. students
  and postdocs), scientific credit in the community is essential.
  Thank you for helping us!

  For any use of FHI-aims, please cite:

    Volker Blum, Ralf Gehrke, Felix Hanke, Paula Havu, Ville Havu,
    Xinguo Ren, Karsten Reuter, and Matthias Scheffler
    'Ab initio molecular simulations with numeric atom-centered orbitals'
    Computer Physics Communications 180, 2175-2196 (2009)
    http://dx.doi.org/10.1016/j.cpc.2009.06.022


  For Hartree-Fock, hybrid functionals, or many-body perturbation theory used in your run, please cite:

    Xinguo Ren, Patrick Rinke, Volker Blum, Juergen Wieferink, Alex Tkatchenko,
    Andrea Sanfilippo, Karsten Reuter, and Matthias Scheffler,
    'Resolution-of-identity approach to Hartree-Fock, hybrid density functionals,
    RPA, MP2, and GW with numeric atom-centered orbital basis functions'
    New Journal of Physics 14, 053020 (2012).
    http://dx.doi.org/10.1088/1367-2630/14/5/053020


  The provided symmetry information was generated with SPGlib:

    Atsushi Togo, Yusuke Seto, Dimitar Pashov
    SPGlib 1.7.3 obtained from http://spglib.sourceforge.net
    Copyright (C) 2008 Atsushi Togo


  For second-variational spin-orbit coupling used in your run, please cite:

    William P. Huhn and Volker Blum,
    'One-hundred-three compound band-structure benchmark of post-self-consistent'
    'spin-orbit coupling treatments in density functional theory'
    Phys. Rev. Materials 1, 033803 (2017).


  The ELSI infrastructure was used in your run to solve the Kohn-Sham electronic structure.
  Please check out http://elsi-interchange.org to learn more.
  If scalability is important for your project, please acknowledge ELSI by citing:

    V. W-z. Yu, F. Corsetti, A. Garcia, W. P. Huhn, M. Jacquelin, W. Jia,
    B. Lange, L. Lin, J. Lu, W. Mi, A. Seifitokaldani, A. Vazquez-Mayagoitia,
    C. Yang, H. Yang, and V. Blum
    'ELSI: A unified software interface for Kohn-Sham electronic structure solvers'
    Computer Physics Communications 222, 267-285 (2018).
    http://dx.doi.org/10.1016/j.cpc.2017.09.007


  For the real-space grid partitioning and parallelization used in this calculation, please cite:

    Ville Havu, Volker Blum, Paula Havu, and Matthias Scheffler,
    'Efficient O(N) integration for all-electron electronic structure calculation'
    'using numerically tabulated basis functions'
    Journal of Computational Physics 228, 8367-8379 (2009).
    http://dx.doi.org/10.1016/j.jcp.2009.08.008


  The high-level electronic structure method used in your calculation
  employed our efficient localized resolution of identity for the Coulomb operator.
  Some calculations, especially large-scale hybrid density functional theory,
  are only possible thanks to this development. For this feature, please cite:

    Arvid Ihrig, Juergen Wieferink, Igor Ying Zhang, Matti Ropo, Xinguo Ren,
    Patrick Rinke, Matthias Scheffler, and Volker Blum,
    'Accurate localized resolution of identity approach for linear-scaling
    hybrid density functionals and for many-body perturbation theory'
    New Journal of Physics 117, 093020 (2015).
    http://dx.doi.org/10.1088/1367-2630/17/9/093020

  Of course, there are many other important community references, e.g., those cited in the
  above references. Our list is limited to references that describe implementations in the
  FHI-aims code. The reason is purely practical (length of this list) - please credit others as well.

------------------------------------------------------------
          Leaving FHI-aims.
          Date     :  20210412, Time     :  173337.501

          Computational steps:
          | Number of self-consistency cycles          :           13
          | Number of SCF (re)initializations          :            1

          Detailed time accounting                     :  max(cpu_time)    wall_clock(cpu1)
          | Total time                                 :     1018.453 s        1018.460 s
          | Preparation time                           :        0.465 s           0.464 s
          | Boundary condition initalization           :        0.181 s           0.180 s
          | Grid partitioning                          :        0.060 s           0.060 s
          | Preloading free-atom quantities on grid    :        0.161 s           0.161 s
          | Free-atom superposition energy             :        0.016 s           0.016 s
          | Total time for integrations                :        6.779 s           6.775 s
          | Product basis setup: Total time            :      287.438 s         287.425 s
          | Total time evaluating exchange matrix      :      615.611 s         615.557 s
          | Total time for solution of K.-S. equations :        4.510 s           4.508 s
          | Total time for density update              :       15.404 s          15.406 s
          | Total time for mixing                      :        0.020 s           0.016 s
          | Total time for Hartree multipole update    :        0.025 s           0.025 s
          | Total time for Hartree multipole sum       :        3.070 s           3.069 s
          | Total time for total energy evaluation     :        0.037 s           0.032 s
          | Total time for scaled ZORA corrections     :        0.000 s           0.000 s
          | Total time for perturbative SOC            :        4.654 s           4.654 s
          | Total time for band structures, DOS        :       60.923 s          60.959 s
          | Total time for Mulliken analysis           :       18.959 s          18.997 s

          Partial memory accounting:
          | Residual value for overall tracked memory usage across tasks:     0.000000 MB (should be 0.000000 MB)
          | Peak values for overall tracked memory usage:
          |   Minimum:      212.885 MB (on task  8 after allocating fock_matrix_tmp)
          |   Maximum:      527.025 MB (on task 10 after allocating fock_matrix_tmp)
          |   Average:      302.963 MB
          | Largest tracked array allocation:
          |   Minimum:      190.162 MB (aux_mat on task  3)
          |   Maximum:      413.462 MB (fock_matrix_tmp on task 10)
          |   Average:      218.332 MB
          Note:  These values currently only include a subset of arrays which are explicitly tracked.
          The "true" memory usage will be greater.

          Have a nice day.
------------------------------------------------------------
