

 Parallel Execution: Process Information
 ==============================================================================
 Rank   Node Name                              NodeID   MyNodeRank  NodeMaster
    0   node083                                   0          0          0
    1   node083                                   0          1         -1
    2   node083                                   0          2         -1
    3   node083                                   0          3         -1
    4   node083                                   0          4         -1
    5   node083                                   0          5         -1
    6   node083                                   0          6         -1
    7   node083                                   0          7         -1
    8   node083                                   0          8         -1
    9   node083                                   0          9         -1
   10   node083                                   0         10         -1
   11   node083                                   0         11         -1
   12   node083                                   0         12         -1
   13   node083                                   0         13         -1
   14   node083                                   0         14         -1
   15   node083                                   0         15         -1
 ==============================================================================


May use up to 123235MB of RAM as shared memory on node 0

 *******************************************************************************
 *                                                                             *
 *  -------------------------------------                                      *
 *   Amsterdam Density Functional  (ADF)         2018                          *
 *  -------------------------------------                                      *
 *                                               r70630 2018-11-24             *
 *                                                                             *
 *                                                                             *
 *                              =================                              *
 *                              |               |                              *
 *                              |     A M S     |                              *
 *                              |               |                              *
 *                              =================                              *
 *                                                                             *
 *                                                                             *
 *   Online information and documentation:  https://www.scm.com/support/       *
 *   E-mail:  support@scm.com   info@scm.com                                   *
 *                                                                             *
 *   Scientific publications using ADF results must be properly referenced     *
 *   See the User Manuals (or the web site) for recommended citations          *
 *   The terms and conditions of the End User License Agreement apply to       *
 *   the use of ADF, https://www.scm.com/license-terms/                        *
 *                                                                             *
 **********************  x86_64_linux_intel / intelmpi  ************************
 
 Licensed to: Dr. Ralf Tonner / Philipps-Universt?t, Theoretical Surface Chemistry Group / Marburg / DE
 SCM User ID: u12265
  
 AMS 2018  RunTime: Feb14-2019 10:34:15  Nodes: 1  Procs: 16

 AMS jobname: ams
 AMS jobid  : 570835134

 Start   directory: /local/2966701.1.parallel/
 Results directory: /local/2966701.1.parallel/ams.results/
 Scratch directory: /local/2966701.1.parallel/amstmp_ams_kid0.570835134/

       ***************************
       *  GEOMETRY OPTIMIZATION  *
       ***************************

Optimization Method                    Quasi Newton
Optimization Coordinates               Cartesian Coordinates
Optimize lattice                       F
 
 ------------------------------------------------------
 Convergence criteria (Hartree,Angstrom)
 ------------------------------------------------------
 Maximum gradient               0.001000000000
 Maximum rms gradient           0.000666666667
 Maximum step allowed           0.001000000000
 Maximum rms step allowed       0.000666666667
 Maximum energy change allowe   0.000010000000
 
Initial model Hessian                  Automatic Hessian
 
------------------------------------
Quasi-Newton Optimizer Parameters
------------------------------------
Hessian Update Method                  BFGS
Maximum number of steps                   66
First GDIIS cycle                          0
Maximum GDIIS vectors                      0
Trust radius (bohr)                        0.200000
Trust radius varies                        T
Constraints converged at all steps         T
Rigid motions option                    None
Symmetrize steps                           F
 
 
---------------
Geometry
---------------
Atoms
  Index Symbol       x (bohr)       y (bohr)       z (bohr)
      1      C     7.95274649     6.53111496    17.14262515
      2      C     8.71055586     8.89758851    16.25381087
      3      C     9.14727438     4.36723014    16.22386131
      4      C    10.98390160     4.55910368    14.32223927
      5      C    11.68246334     6.92040535    13.22237967
      6      C    10.55039679     9.08986207    14.35958881
      7      H    11.98560687     2.82978455    13.77423230
      8      H     8.66441028     2.50811422    16.97679550
      9      H     6.48816804     6.37897340    18.58533142
     10      H     7.87298055    10.61733539    17.02807100
     11      H    11.19803359    10.98615261    13.82801331
 
Lattice vectors (bohr)
      1    16.48056584     0.00000000     0.00000000
      2     0.00000000    14.28693452     0.00000000
 
Atoms
  Index Symbol   x (angstrom)   y (angstrom)   z (angstrom)
      1      C     4.20841220     3.45611720     9.07148656
      2      C     4.60942766     4.70840107     8.60114630
      3      C     4.84052914     2.31103867     8.58529768
      4      C     5.81243041     2.41257377     7.57900263
      5      C     6.18209337     3.66212080     6.99698199
      6      C     5.58302955     4.81014786     7.59876716
      7      H     6.34251001     1.49745749     7.28900983
      8      H     4.58500847     1.32723689     8.98373329
      9      H     3.43339067     3.37560735     9.83493384
     10      H     4.16620189     5.61845193     9.01086712
     11      H     5.92574418     5.81362159     7.31746952
 
Lattice vectors (angstrom)
      1     8.72113986     0.00000000     0.00000000
      2     0.00000000     7.56032016     0.00000000
 
Total System Charge             0.00000
 

 *******************************************************************************
 *                                                                             *
 *  -------------------------------------                                      *
 *   Amsterdam Density Functional  (ADF)         2018                          *
 *  -------------------------------------                                      *
 *                                               r70630 2018-11-24             *
 *                                                                             *
 *                                                                             *
 *                             ===================                             *
 *                             |                 |                             *
 *                             |     B A N D     |                             *
 *                             |                 |                             *
 *                             ===================                             *
 *                                                                             *
 *                                                                             *
 *   Online information and documentation:  https://www.scm.com/support/       *
 *   E-mail:  support@scm.com   info@scm.com                                   *
 *                                                                             *
 *   Scientific publications using ADF results must be properly referenced     *
 *   See the User Manuals (or the web site) for recommended citations          *
 *   The terms and conditions of the End User License Agreement apply to       *
 *   the use of ADF, https://www.scm.com/license-terms/                        *
 *                                                                             *
 **********************  x86_64_linux_intel / intelmpi  ************************
 
 Licensed to: Dr. Ralf Tonner / Philipps-Universt?t, Theoretical Surface Chemistry Group / Marburg / DE
 SCM User ID: u12265
  
 BAND 2018  RunTime: Feb14-2019 10:34:18  Nodes: 1  Procs: 16

 AMS jobname: ams
 AMS jobid  : 570835134

 Start   directory: /local/2966701.1.parallel/
 Results directory: /local/2966701.1.parallel/ams.results/
 Scratch directory: /local/2966701.1.parallel/amstmp_ams_kid0.570835134/

 
-----------------
Band Engine Input
-----------------
 
  Basis
   Type DZP
   Core large
  End
  XC
   LDA LDA
   GGA PBE
   dispersion Grimme3 BJdamp
  END
 KSpace
  Regular
   NumberOfPoints 1 1
  end 
 End
 NumericalQuality Good
 Unrestricted True
 Occupations
  1 15 // 14
 end
 Relativity
  Level Scalar
 End
 SCF
  Mixing 0.2
  Iterations 300
 End
 Convergence
 criterion 1E-6
 End
 UseSymmetry False
 Dependency basis=1e-8
 
 Using automatic Hessian for periodic systems (Unit Hessian).

   LockSharedArrayModule: size of slices    32 exact locking     T

 Using the following basis set files:
 
 C              : /home/ag_tonner/chemsoft/lx24-amd64/adf2018.105/atomicdata/Band/DZP/C.1s
 H              : /home/ag_tonner/chemsoft/lx24-amd64/adf2018.105/atomicdata/Band/DZP/H

 Settings for Grimme 3 dispersion correction

      damping                        BJ
      s6                          1.000
      a1                          0.429
      s8                          0.788
      a2                          4.441

 Other (technical) parameters

      alpha                      14.000
      version                         4
 



 =====================
 C O N F I N E M E N T
 =====================
  
 Basis functions confinement radius        20.000
 Width                                      2.000



 ===============================
 M O D E L   P A R A M E T E R S
 ===============================
  
 DENSITY FUNCTIONAL POTENTIAL (scf)
    LDA:                               VWN                                      
    Gradient Corrections:              PBEc PBEx                               == Not Default ==
 DENSITY FUNCTIONAL ENERGY (post-scf)
    Gradient Corrections:              Becke88 Perdew86 PW91x PW91c EV93x PW...== Not Default ==

 SPIN  (restricted / unrestr.)
    Molecule:                          UNrestricted                            == Not Default ==

 OTHER ASPECTS
    Relativistic Corrections:          scalar (ZORA,APA)                       == Not Default ==

    Nuclear Charge Density Model:      Point Charge Nuclei                      



 ========================
 S. C. F.   O P T I O N S
 ========================
  

 * DIIS settings info for DIRAC   *
    Cond              0.1E+07
    CLarge          20.00
    CHuge           50.00
    DiMix            1.00
    IopPly              1
    NCyDmp              5
    IPrint              0
    Adaptable           F
    Method         diis                
    Dimix Decay fac  1.00

 * DIIS settings info for SCF     *
    Cond              0.1E+07
    CLarge          20.00
    CHuge           20.00
    DiMix            0.20
    IopPly              1
    NCyDmp              1
    IPrint              0
    Adaptable           T
    Method         DIIS                
    Dimix Decay fac  1.00
 growth factor   1.10000000000000     
 shrink factor  0.909090909100000     

    Mix            0.2000
    Degenerate          F
    Edegen          1.0E-04
    SCFRTX           9.90
    Convrg          1.0E-06
    Ncyclx            300
    Vsplit          5.0E-02
 getinp: use Shared Memory T
 blockIterator: dynamic default: T

 FunctionSetOverlapModule: use new routines     3


   size of slices for column locking    32 exact locking




                             **  R A D I A L   F U N C T I O N S  **

 TOTAL NR. OF TYPES OF ATOMS                              2




                             ---------------------
                                   T Y P E   1
                             ---------------------

 RADIAL POINTS                                         3000




 ............................ D I R A C ................................

 NUCLEAR CHARGE                                 6.0000               **>  C  <**
 (POINT NUCLEUS)
 VALENCE CHARGE                                 4.0000
 NET CHARGE                                     0.0000

 VALENCE ORBITALS INCLUDED IN THE CRYSTAL BASIS
 NR. OF (RADIAL) CORE FUNCTIONS                 1
 Radial grid       nr of points               3000
                   range                      0.10E-05     0.10E+03
  
  ** SCF-FUNCTIONAL INFO **
    ZORA
    SCALAR
  
 Self consistent error   0.18E-08


  Orbital    Q         E(a.u.)     E(eV)           <R>
 -------------------------------------------------------------------
  1S         2.00    -10.050188       -273.4795   0.271
  2S         2.00     -0.505399        -13.7526   1.571
  2P         2.00     -0.194278         -5.2866   1.799


 Sum (energy eigenvalues)                     -21.4997
 Total energy LDA                             -37.4486
              + Becke88                       -38.0235
              + Becke88+Perdew86              -37.8257
              + Perdew-Wang (91) X            -38.0083
              + Perdew-Wang (91) X+C          -37.8070
              + EV93x+PW91c                   -38.0194
              + PW86x+Perdew86c               -37.8745
              + Becke88+LYP                   -38.1993
              + Becke (alt)                   -38.0235
              + PBE                           -37.7748
              + RPBE                          -37.8379
 Kinetic energy                                37.6740
 Classical e-e repulsion                       17.6991
 e-nucl. attraction.                          -88.0675

 ......................................................................


 Sum first order eigenvalues                  -21.4911
 First order  LDA                             -37.4400
              + Becke88                       -38.0149
              + Becke88+Perdew86              -37.8171
              + Perdew-Wang (91) X            -37.9997
              + Perdew-Wang (91) X+C          -37.7985
              + EV93x+PW91c                   -38.0108
              + PW86x+Perdew86c               -37.8659
              + Becke88+LYP                   -38.1907
              + Becke (alt)                   -38.0149
              + PBE                           -37.7662
              + RPBE                          -37.8293

 ......................................................................




 SLATER TYPE ORBITAL SETS
   2   0    1.9800
   2   1    2.2000
   3   2    2.2000
 nRadialFuncs=           0
 summary of added auto gaussians
                   Type             valence
            Spher. Harm                 zlm
    Nr. of radial func.                   0
 summary of added auto kin gaussians
                   Type     valence kinetic
            Spher. Harm                 zlm
    Nr. of radial func.                   0

 NR. OF RADIAL VALENCE ORBITALS                           5
 NR. OF RADIAL CORE ORBITALS                              1
 NR. OF RADIAL FIT FUNCTIONS                              0




                             ---------------------
                                   T Y P E   2
                             ---------------------

 RADIAL POINTS                                         3000




 ............................ D I R A C ................................

 NUCLEAR CHARGE                                 1.0000               **>  H  <**
 (POINT NUCLEUS)
 VALENCE CHARGE                                 1.0000
 NET CHARGE                                     0.0000

 VALENCE ORBITALS INCLUDED IN THE CRYSTAL BASIS
 Radial grid       nr of points               3000
                   range                      0.10E-05     0.10E+03
  
  ** SCF-FUNCTIONAL INFO **
    ZORA
    SCALAR
  
 Self consistent error   0.58E-08


  Orbital    Q         E(a.u.)     E(eV)           <R>
 -------------------------------------------------------------------
  1S         1.00     -0.238623         -6.4932   1.635


 Sum (energy eigenvalues)                      -0.2386
 Total energy LDA                              -0.4454
              + Becke88                        -0.4891
              + Becke88+Perdew86               -0.4653
              + Perdew-Wang (91) X             -0.4852
              + Perdew-Wang (91) X+C           -0.4603
              + EV93x+PW91c                    -0.4830
              + PW86x+Perdew86c                -0.4666
              + Becke88+LYP                    -0.5024
              + Becke (alt)                    -0.4891
              + PBE                            -0.4589
              + RPBE                           -0.4655
 Kinetic energy                                 0.4474
 Classical e-e repulsion                        0.2899
 e-nucl. attraction.                           -0.9448

 ......................................................................


 Sum first order eigenvalues                   -0.2386
 First order  LDA                              -0.4454
              + Becke88                        -0.4891
              + Becke88+Perdew86               -0.4652
              + Perdew-Wang (91) X             -0.4852
              + Perdew-Wang (91) X+C           -0.4603
              + EV93x+PW91c                    -0.4830
              + PW86x+Perdew86c                -0.4666
              + Becke88+LYP                    -0.5024
              + Becke (alt)                    -0.4891
              + PBE                            -0.4589
              + RPBE                           -0.4655

 ......................................................................




 SLATER TYPE ORBITAL SETS
   1   0    1.2800
   2   1    1.2500
 nRadialFuncs=           0
 summary of added auto gaussians
                   Type             valence
            Spher. Harm                 zlm
    Nr. of radial func.                   0
 summary of added auto kin gaussians
                   Type     valence kinetic
            Spher. Harm                 zlm
    Nr. of radial func.                   0

 NR. OF RADIAL VALENCE ORBITALS                           3
 NR. OF RADIAL CORE ORBITALS                              0
 NR. OF RADIAL FIT FUNCTIONS                              0



 ======================================================
 R A N G E S    F O R    A T O M I C    O R B I T A L S
 ======================================================
  
   --------------------------------------------------------------------------------
                            valence            core valence kinetic    core kinetic
   --------------------------------------------------------------------------------

             Cutoff       1.000E-07       1.000E-07       1.000E-07       1.000E-07
   --------------------------------------------------------------------------------
 
   --------------------------------------------------------------------------------
               Type         valence            core valence kinetic    core kinetic
   --------------------------------------------------------------------------------
                  C           24.80            4.31           24.95            4.33
                  H           23.61            0.00           24.05            0.00
   --------------------------------------------------------------------------------
 



 ====================
 R U N    C O N F I G
 ====================
  
 
 Use Symmetry  .  .  .  .  .  .  .  .  .  .  .  .  .  .  .  .  F
 Calculate gradient of basis  .  .  .  .  .  .  .  .  .  .  .  T
 Calculate sec. der. of basis .  .  .  .  .  .  .  .  .  .  .  F
 Calculate operator T working on basis .  .  .  .  .  .  .  .  T
 Calculate dk-basis  .  .  .  .  .  .  .  .  .  .  .  .  .  .  F
 Calculate gradient of fit .  .  .  .  .  .  .  .  .  .  .  .  T
 Calculate sec. der. of fit.  .  .  .  .  .  .  .  .  .  .  .  T
 Calculate gradient of fit pot.  .  .  .  .  .  .  .  .  .  .  F
 Kin. energy via grad.  .  .  .  .  .  .  .  .  .  .  .  .  .  F
 Turnover rule for xc.  .  .  .  .  .  .  .  .  .  .  .  .  .  F
 Calculate gradient of energy .  .  .  .  .  .  .  .  .  .  .  T
 Calculate analytical strain derivatives  .  .  .  .  .  .  .  F
 Calculate kin. energy density.  .  .  .  .  .  .  .  .  .  .  F
 Calculate nuc. grad of kin. energy density  .  .  .  .  .  .  F
 Calculate der. of density .  .  .  .  .  .  .  .  .  .  .  .  T
 Calculate second der. of density.  .  .  .  .  .  .  .  .  .  T
 Calculate nuc. grad. of density .  .  .  .  .  .  .  .  .  .  T
 Calculate nuc. grad. of grad. density .  .  .  .  .  .  .  .  F
 Exact rho during SCF.  .  .  .  .  .  .  .  .  .  .  .  .  .  T
 Exact grad. rho during SCF.  .  .  .  .  .  .  .  .  .  .  .  F
 Exact grad. rho post SCF  .  .  .  .  .  .  .  .  .  .  .  .  T
 Store history of dens. matrix.  .  .  .  .  .  .  .  .  .  .  T
 Store original Bloch functions  .  .  .  .  .  .  .  .  .  .  F
 Direct fit .  .  .  .  .  .  .  .  .  .  .  .  .  .  .  .  .  F
 Direct basis  .  .  .  .  .  .  .  .  .  .  .  .  .  .  .  .  T
 STO based fitting.  .  .  .  .  .  .  .  .  .  .  .  .  .  .  F
 Zlm fitting.  .  .  .  .  .  .  .  .  .  .  .  .  .  .  .  .  T
 Calculate fragment energy in mol. grid.  .  .  .  .  .  .  .  T
 Map atoms to unit cell .  .  .  .  .  .  .  .  .  .  .  .  .  T
 Calculate DOS .  .  .  .  .  .  .  .  .  .  .  .  .  .  .  .  F
 Calculate band structure  .  .  .  .  .  .  .  .  .  .  .  .  F
 Calculate EFG .  .  .  .  .  .  .  .  .  .  .  .  .  .  .  .  F
 Calculate properties.  .  .  .  .  .  .  .  .  .  .  .  .  .  T
 Calculate kinetic energy  .  .  .  .  .  .  .  .  .  .  .  .  T
 Save file tape10 .  .  .  .  .  .  .  .  .  .  .  .  .  .  .  F
 Save file Points .  .  .  .  .  .  .  .  .  .  .  .  .  .  .  F



 ==================================================
 G E O M E T R Y    I N    X - Y - Z    F O R M A T
 ==================================================
  
 C      -3.232696626     2.660526838     0.810696023
 C      -2.831681173    -3.647509453     0.340355763
 C      -2.600579687     1.515448307     0.324507141
 C      -1.628678419     1.616983406    -0.681787910
 C      -1.259015464     2.866530442    -1.263808543
 C      -1.858079282    -3.545762664    -0.662023382
 H      -1.098598817     0.701867133    -0.971780708
 H      -2.856100364     0.531646525     0.722942753
 H      -4.007718162     2.580016989     1.574143303
 H      -3.274906943    -2.737458594     0.750076582
 H      -1.515364649    -2.542288929    -0.943321021
 VEC1     8.721139862     0.000000000     0.000000000
 VEC2     0.000000000     7.560320162     0.000000000

   Total nr. of atoms:         11





                       2 - D I M E N S I O N A L   C R Y S T A L


                             IN K-SPACE ONLY THE GAMMA POINT




   REAL SPACE LATTICE VECTORS                         LENGTH
   --------------------------                         ------
   1)  16.4805658365   0.0000000000                   16.481
   2)   0.0000000000  14.2869345229                   14.287

   ----------------------------------------
   Angles between lattice vectors
   ----------------------------------------

     pair          angle

     2 1            90.000000
 


 SMALLEST INTERATOMIC DISTANCE =      2.061440870099
 BeckeGrid: periodic partition function using cells up to order            5



 ===============================
 K - S P A C E   S A M P L I N G
 ===============================
  
 Custom Regular k-space grid.
 
   Single k-point



 =========
 C E L L S
 =========
  

   Nr. of cells for valence functions:         41



 ===========================
 L I N E A R   S C A L I N G
 ===========================
  
 Neglecting functions
              Valence  1.00E-07
                 Core  1.00E-07
                  Fit  0.00E+00
            Multipole  1.00E-08
   Screening function  3.16E-05



 =========================================
 N U M E R I C A L   I N T E G R A T I O N
 =========================================
  
 Becke grid quality: GOOD           
  
 Lebedev angular grid order:             min:  11 max:  31
 Nr. of radial points:                   min:  56 max:  65

 Total nr. of points                                 140160
 Block length                                           128
 Nr. of unique blocks                                  1095
 Total nr. of blocks                                   1095

 Percentage dummy points                               0.00%
 Nr. of k-points processed together in baspnt            30
 Nr. of symmetry operators (real space)                   1
 Symmetry operators in k-space                            2



 Total charge,    analytically                           41.000000000000
                  numerically                            40.999982786429
                  relative error                     -0.42E-06

 Valence density, analytically                           29.000000000000
                  numerically                            28.999999773258
                  relative error                     -0.78E-08



 INTEGRATED CHARGE PER ATOM:

  SET      TOTAL CHARGE      REL. ERROR      Valence CHARGE    REL. ERROR
 ------------------------------------------------------------------------
   1       5.9999973991      -0.433E-06      4.0000004009       0.100E-06
   2       5.9999975931      -0.401E-06      3.9999995501      -0.112E-06
   3       5.9999981445      -0.309E-06      3.9999999135      -0.216E-07
   4       5.9999965985      -0.567E-06      3.9999995025      -0.124E-06
   5       5.9999971329      -0.478E-06      4.0000006254       0.156E-06
   6       5.9999962129      -0.631E-06      4.0000000752       0.188E-07
   7       0.9999996998      -0.300E-06      0.9999996998      -0.300E-06
   8       1.0000007322       0.732E-06      1.0000007322       0.732E-06
   9       1.0000000654       0.654E-07      1.0000000654       0.654E-07
  10       1.0000006108       0.611E-06      1.0000006108       0.611E-06
  11       0.9999985974      -0.140E-05      0.9999985974      -0.140E-05

 Norms of functions from routine baspnt
 Maximum error in norms     2.777E-06 for function      100
 Minimum accuracy required  1.000E-03

 Norms of functions from routine corpnt
 Maximum error in norms     1.982E-06 for function        6
 Minimum accuracy required  1.000E-03

 Sparseness info - valence
   nr. of functions             103
   max. nr. of functions        103
   min. nr. of functions         55
   avr. nr. of functions        101
   percentage stored           98.1
 

 Sparseness info - core
   nr. of functions               6
   max. nr. of functions          6
   min. nr. of functions          0
   avr. nr. of functions          2
   percentage stored           33.3
 

 Frozen core overlap error  1.67E-04
 PrepareHam: needLdotB F

 FunctionSetTransformOption:     2
   Cut off:   1.00E-10




 ========================
 Density Fitting (zlmFit)
 ========================
  
 ZlmFit Fit Quality: GOOD           
  
 Max L-expansion:                        min:   7 max:   8
 Nr. of radial interpolation points:     min:  72 max:  84
 BeckeGrid: periodic partition function using cells up to order            5
 skipDiagonalization F parmix=  0.200000000000000      ncylx=         300
 restartSCF F
 forceRestartSolution F



                                          *******************************
                                          *  S C F   P R O C E D U R E  *
                                          *******************************
  

 Nr. of basis functions                  103
 Nr. of core functions                     6
 Nr. of fit functions                      0
 Nr. of symmetry unique K-points           1
 Valence charge                           29.00

 Settings for convergence
 --------------------------------------------------------------------------------
   Initial density:          psi
   start. from max. spin     T
 --------------------------------------------------------------------------------

 cyc=  0 err=0.00E+00 cpu=   7s ela=   8s
 cyc=  1 err=9.71E-01 meth=m nvec= 1 mix=0.2000 cpu=   7s ela=   8s fit=7.45E-03
 cyc=  2 err=7.80E-01 meth=d nvec= 2 mix=0.2000 cpu=   7s ela=   8s fit=4.94E-03
 cyc=  3 err=7.44E-02 meth=d nvec= 3 mix=0.2000 cpu=   7s ela=   7s fit=4.88E-03
 cyc=  4 err=5.09E-02 meth=d nvec= 4 mix=0.2000 cpu=   7s ela=   8s fit=5.01E-03
 cyc=  5 err=1.79E-02 meth=d nvec= 5 mix=0.2000 cpu=   7s ela=   8s fit=5.02E-03
 cyc=  6 err=1.14E-02 meth=d nvec= 4 mix=0.2200 cpu=   7s ela=   8s fit=5.02E-03
 cyc=  7 err=5.36E-03 meth=d nvec= 5 mix=0.2200 cpu=   7s ela=   8s fit=5.02E-03
 cyc=  8 err=2.28E-03 meth=d nvec= 6 mix=0.2200 cpu=   7s ela=   8s fit=5.02E-03
 cyc=  9 err=1.29E-03 meth=d nvec= 6 mix=0.2420 cpu=   7s ela=   8s fit=5.02E-03
 cyc= 10 err=8.54E-04 meth=d nvec= 7 mix=0.2420 cpu=   7s ela=   8s fit=5.02E-03
 cyc= 11 err=3.65E-04 meth=d nvec= 7 mix=0.2662 cpu=   7s ela=   8s fit=5.02E-03
 cyc= 12 err=2.86E-04 meth=d nvec= 7 mix=0.2928 cpu=   7s ela=   8s fit=5.02E-03
 cyc= 13 err=9.79E-05 meth=d nvec= 7 mix=0.3221 cpu=   7s ela=   8s fit=5.02E-03
 cyc= 14 err=3.98E-05 meth=d nvec= 7 mix=0.3543 cpu=   8s ela=   8s fit=5.02E-03
 cyc= 15 err=1.83E-05 meth=d nvec= 8 mix=0.3543 cpu=   7s ela=   8s fit=5.02E-03
 cyc= 16 err=7.31E-06 meth=d nvec= 8 mix=0.3897 cpu=   7s ela=   8s fit=5.02E-03
 cyc= 17 err=3.74E-06 meth=d nvec= 7 mix=0.4287 cpu=   7s ela=   8s fit=5.02E-03

 CONVERGENCE REACHED
 cyc= 18 err=7.46E-07 meth=d nvec= 7 mix=0.4716 cpu=   7s ela=   8s fit=5.02E-03


         -------------------- CYCLE   19 --------------------
 Self consistent error (density)                       7.46E-07



                                             *************************
                                             *  P R O P E R T I E S  *
                                             *************************
  



 ===================================
 B A N D   E N E R G Y   R A N G E S
 ===================================
  
 The energies below are in Hartree.
 ========================================================================================
       band      min(up)      max(up)    occup(up)      min(dn)      max(dn)    occup(dn)
 ========================================================================================
          1     -0.80212     -0.80212      1.00000     -0.79723     -0.79723      1.00000
          2     -0.70208     -0.70208      1.00000     -0.69961     -0.69961      1.00000
          3     -0.69759     -0.69759      1.00000     -0.68849     -0.68849      1.00000
          4     -0.56558     -0.56558      1.00000     -0.56276     -0.56276      1.00000
          5     -0.56344     -0.56344      1.00000     -0.55441     -0.55441      1.00000
          6     -0.48540     -0.48540      1.00000     -0.48115     -0.48115      1.00000
          7     -0.42655     -0.42655      1.00000     -0.42129     -0.42129      1.00000
          8     -0.42564     -0.42564      1.00000     -0.42052     -0.42052      1.00000
          9     -0.39625     -0.39625      1.00000     -0.39432     -0.39432      1.00000
         10     -0.36873     -0.36873      1.00000     -0.36016     -0.36016      1.00000
         11     -0.34959     -0.34959      1.00000     -0.34651     -0.34651      1.00000
         12     -0.32469     -0.32469      1.00000     -0.32038     -0.32038      1.00000
         13     -0.25630     -0.25630      1.00000     -0.25289     -0.25289      1.00000
         14     -0.25281     -0.25281      1.00000     -0.24730     -0.24730      1.00000
         15     -0.24812     -0.24812      1.00000     -0.15614     -0.15614      0.00000
         16     -0.07121     -0.07121      0.00000     -0.06360     -0.06360      0.00000
         17     -0.06320     -0.06320      0.00000     -0.05913     -0.05913      0.00000
         18     -0.00089     -0.00089      0.00000      0.00112      0.00112      0.00000
         19      0.06307      0.06307      0.00000      0.06533      0.06533      0.00000
         20      0.07547      0.07547      0.00000      0.08254      0.08254      0.00000
         21      0.10577      0.10577      0.00000      0.10693      0.10693      0.00000
         22      0.13597      0.13597      0.00000      0.13903      0.13903      0.00000
         23      0.15736      0.15736      0.00000      0.15982      0.15982      0.00000
         24      0.19826      0.19826      0.00000      0.20651      0.20651      0.00000
         25      0.25412      0.25412      0.00000      0.26046      0.26046      0.00000
         26      0.26347      0.26347      0.00000      0.26951      0.26951      0.00000
         27      0.27633      0.27633      0.00000      0.28672      0.28672      0.00000
         28      0.31048      0.31048      0.00000      0.31920      0.31920      0.00000
         29      0.34796      0.34796      0.00000      0.35162      0.35162      0.00000
         30      0.38011      0.38011      0.00000      0.38110      0.38110      0.00000
         31      0.40875      0.40875      0.00000      0.41867      0.41867      0.00000
         32      0.43806      0.43806      0.00000      0.44281      0.44281      0.00000
         33      0.45138      0.45138      0.00000      0.45582      0.45582      0.00000
         34      0.45680      0.45680      0.00000      0.46196      0.46196      0.00000
         35      0.46014      0.46014      0.00000      0.46244      0.46244      0.00000
         36      0.46068      0.46068      0.00000      0.46855      0.46855      0.00000
         37      0.48105      0.48105      0.00000      0.48384      0.48384      0.00000
         38      0.49530      0.49530      0.00000      0.49893      0.49893      0.00000
         39      0.50804      0.50804      0.00000      0.51847      0.51847      0.00000
         40      0.51199      0.51199      0.00000      0.54252      0.54252      0.00000
         41      0.57899      0.57899      0.00000      0.57993      0.57993      0.00000
         42      0.59908      0.59908      0.00000      0.60212      0.60212      0.00000
         43      0.62240      0.62240      0.00000      0.64895      0.64895      0.00000
         44      0.67909      0.67909      0.00000      0.69134      0.69134      0.00000
         45      0.75941      0.75941      0.00000      0.76375      0.76375      0.00000
         46      0.76355      0.76355      0.00000      0.76928      0.76928      0.00000
         47      0.78233      0.78233      0.00000      0.78520      0.78520      0.00000
 ========================================================================================

----------------------------------------
Band gap information
----------------------------------------
Number of valence electrons                    29
Valence band index                             14
Valence band spin index                         2
Conduction band index                          15
Conduction band spin index                      2
Top of valence band (a.u.)                 -0.247
Bottom of conduction band (a.u.)           -0.156
Band gap (a.u.)                             0.091
Band gap (eV)                               2.481
Band gap (kcal/mol)                        57.204
 



 ===================================
 B A N D   E N E R G Y   R A N G E S
 ===================================
  
 The energies below are in Hartree.
 ========================================================================================
       band      min(up)      max(up)    occup(up)      min(dn)      max(dn)    occup(dn)
 ========================================================================================
          1     -0.80212     -0.80212      1.00000     -0.79723     -0.79723      1.00000
          2     -0.70208     -0.70208      1.00000     -0.69961     -0.69961      1.00000
          3     -0.69759     -0.69759      1.00000     -0.68849     -0.68849      1.00000
          4     -0.56558     -0.56558      1.00000     -0.56276     -0.56276      1.00000
          5     -0.56344     -0.56344      1.00000     -0.55441     -0.55441      1.00000
          6     -0.48540     -0.48540      1.00000     -0.48115     -0.48115      1.00000
          7     -0.42655     -0.42655      1.00000     -0.42129     -0.42129      1.00000
          8     -0.42564     -0.42564      1.00000     -0.42052     -0.42052      1.00000
          9     -0.39625     -0.39625      1.00000     -0.39432     -0.39432      1.00000
         10     -0.36873     -0.36873      1.00000     -0.36016     -0.36016      1.00000
         11     -0.34959     -0.34959      1.00000     -0.34651     -0.34651      1.00000
         12     -0.32469     -0.32469      1.00000     -0.32038     -0.32038      1.00000
         13     -0.25630     -0.25630      1.00000     -0.25289     -0.25289      1.00000
         14     -0.25281     -0.25281      1.00000     -0.24730     -0.24730      1.00000
         15     -0.24812     -0.24812      1.00000     -0.15614     -0.15614      0.00000
         16     -0.07121     -0.07121      0.00000     -0.06360     -0.06360      0.00000
         17     -0.06320     -0.06320      0.00000     -0.05913     -0.05913      0.00000
         18     -0.00089     -0.00089      0.00000      0.00112      0.00112      0.00000
         19      0.06307      0.06307      0.00000      0.06533      0.06533      0.00000
         20      0.07547      0.07547      0.00000      0.08254      0.08254      0.00000
         21      0.10577      0.10577      0.00000      0.10693      0.10693      0.00000
         22      0.13597      0.13597      0.00000      0.13903      0.13903      0.00000
         23      0.15736      0.15736      0.00000      0.15982      0.15982      0.00000
         24      0.19826      0.19826      0.00000      0.20651      0.20651      0.00000
         25      0.25412      0.25412      0.00000      0.26046      0.26046      0.00000
         26      0.26347      0.26347      0.00000      0.26951      0.26951      0.00000
         27      0.27633      0.27633      0.00000      0.28672      0.28672      0.00000
         28      0.31048      0.31048      0.00000      0.31920      0.31920      0.00000
         29      0.34796      0.34796      0.00000      0.35162      0.35162      0.00000
         30      0.38011      0.38011      0.00000      0.38110      0.38110      0.00000
         31      0.40875      0.40875      0.00000      0.41867      0.41867      0.00000
         32      0.43806      0.43806      0.00000      0.44281      0.44281      0.00000
         33      0.45138      0.45138      0.00000      0.45582      0.45582      0.00000
         34      0.45680      0.45680      0.00000      0.46196      0.46196      0.00000
         35      0.46014      0.46014      0.00000      0.46244      0.46244      0.00000
         36      0.46068      0.46068      0.00000      0.46855      0.46855      0.00000
         37      0.48105      0.48105      0.00000      0.48384      0.48384      0.00000
         38      0.49530      0.49530      0.00000      0.49893      0.49893      0.00000
         39      0.50804      0.50804      0.00000      0.51847      0.51847      0.00000
         40      0.51199      0.51199      0.00000      0.54252      0.54252      0.00000
         41      0.57899      0.57899      0.00000      0.57993      0.57993      0.00000
         42      0.59908      0.59908      0.00000      0.60212      0.60212      0.00000
         43      0.62240      0.62240      0.00000      0.64895      0.64895      0.00000
         44      0.67909      0.67909      0.00000      0.69134      0.69134      0.00000
 ========================================================================================



 =============================
 E N E R G Y   A N A L Y S I S
 =============================
  
 Formation energy w.r.t. spherically-symmetric spin-restricted atoms

                                                             (a.u.)            (eV)     (kCal/mol)
 --------------------------------------------------------------------------------------------------

 Kinetic                                                       2.26847099      61.7282     1423.49
 XC                                                           -2.24230603     -61.0163    -1407.07
 Electrostatic                                                -1.97360120     -53.7044    -1238.45
 V(atomic)*def                                                -0.78081685     -21.2471     -489.97
 V(def)*def                                                    0.21090974       5.7391      132.35
 Dispersion                                                   -0.01095189      -0.2980       -6.87
 --------------------------------------------------------------------------------------------------

 Final bond energy (PBE)                                      -2.52829523     -68.7984    -1586.53
 
 Fit error correction used (Vdef*err)                         -0.00002254      -0.0006       -0.01

 ==================================================================================================



 ================================
 E N E R G Y    G R A D I E N T S
 ================================
  
 (Energy gradients wrt nuclear displacements in Hartree per Bohr)
 
 P Matrix
    1  C  0.003772 -0.001084  0.005397
    2  C  0.000017 -0.001735 -0.003205
    3  C  0.000355  0.006652 -0.003846
    4  C  0.033271  0.017534 -0.027747
    5  C -0.124415 -0.012515  0.154157
    6  C  0.033662 -0.013527 -0.028636
    7  H -0.045282  0.073984  0.018582
    8  H  0.022158  0.085280 -0.034488
    9  H  0.065202  0.006516 -0.063926
   10  H  0.039683 -0.079643 -0.034871
   11  H -0.028423 -0.081461  0.018584
 Kinetic energy
    1  C  0.393251  0.033081 -0.337265
    2  C  0.194804 -0.422289 -0.180886
    3  C  0.104987  0.469394 -0.172835
    4  C -0.169966  0.370800  0.161914
    5  C -0.764790 -0.081367  0.944215
    6  C -0.107542 -0.407147  0.156282
    7  H -0.279891  0.464116  0.146016
    8  H  0.139868  0.532706 -0.216616
    9  H  0.425549  0.043895 -0.417134
   10  H  0.244933 -0.496513 -0.224238
   11  H -0.181204 -0.506675  0.140548
 XC energy
    1  C -0.002368 -0.000207  0.002115
    2  C -0.001639  0.001731  0.001902
    3  C -0.001248 -0.002057  0.002026
    4  C -0.000585 -0.002575  0.001010
    5  C  0.009509  0.001029 -0.011023
    6  C -0.001069  0.002371  0.001057
    7  H -0.000520 -0.000058  0.000582
    8  H -0.000520 -0.000058  0.000582
    9  H -0.000520 -0.000058  0.000582
   10  H -0.000520 -0.000058  0.000582
   11  H -0.000520 -0.000058  0.000582
 Electrostatic energy
    1  C -0.175163 -0.009735  0.124979
    2  C -0.071201  0.181014  0.073617
    3  C -0.032939 -0.211826  0.070478
    4  C -0.023349 -0.166353 -0.005801
    5  C  0.718100  0.075426 -0.895141
    6  C -0.042213  0.170636 -0.001793
    7  H  0.305449 -0.502698 -0.148171
    8  H -0.151830 -0.577820  0.234651
    9  H -0.458125 -0.047182  0.448357
   10  H -0.266428  0.539017  0.242244
   11  H  0.197699  0.549521 -0.143419
 Pair interactions
    1  C -0.220678 -0.022363  0.204979
    2  C -0.120344  0.246037  0.110071
    3  C -0.069806 -0.266575  0.106519
    4  C  0.135748 -0.223713 -0.106247
    5  C  0.206147  0.021948 -0.250598
    6  C  0.091847  0.246922 -0.102182
    7  H  0.023115 -0.036980 -0.013974
    8  H -0.010860 -0.040258  0.016713
    9  H -0.032018 -0.003295  0.031119
   10  H -0.018642  0.037326  0.017187
   11  H  0.015491  0.040950 -0.013586
 Dispersion
    1  C -0.000097 -0.000007  0.000104
    2  C -0.000058  0.000054  0.000048
    3  C -0.000032 -0.000052  0.000050
    4  C  0.000077 -0.000046 -0.000071
    5  C  0.000143  0.000012 -0.000170
    6  C  0.000052  0.000049 -0.000073
    7  H  0.000088 -0.000056 -0.000067
    8  H -0.000044 -0.000059  0.000071
    9  H -0.000112 -0.000010  0.000116
   10  H -0.000075  0.000068  0.000066
   11  H  0.000059  0.000047 -0.000072
 
 FINAL GRADIENTS
    1  C -0.001283 -0.000314  0.000309
    2  C  0.001580  0.004812  0.001546
    3  C  0.001316 -0.004464  0.002393
    4  C -0.024804 -0.004352  0.023058
    5  C  0.044693  0.004532 -0.058560
    6  C -0.025262 -0.000698  0.024653
    7  H  0.002960 -0.001693  0.002967
    8  H -0.001228 -0.000209  0.000913
    9  H -0.000024 -0.000135 -0.000886
   10  H -0.001050  0.000197  0.000969
   11  H  0.003103  0.002323  0.002638
 
 WARNING: matrix written, but never read. Matrix name: S(V/V)
 WARNING: matrix written, but never read. Matrix name: S(C/C)
 WARNING: matrix written, but never read. Matrix name: S(C/V)
 
----------------------------------------------------------------------
Geometry Convergence after Step   1       (Hartree/Angstrom,Angstrom)
----------------------------------------------------------------------
current energy                               -2.52829523 Hartree
energy change                      -2.52829523     0.00001000    F
constrained gradient max            0.11066321     0.00100000    F
constrained gradient rms            0.02935768     0.00066667    F
gradient max                        0.11066321
gradient rms                        0.02935768
cart. step max                      0.03098885     0.00100000    F
cart. step rms                      0.00822099     0.00066667    F
 
 
---------------
Geometry
---------------
Atoms
  Index Symbol       x (bohr)       y (bohr)       z (bohr)
      1      C     7.95402945     6.53142847    17.14231579
      2      C     8.70897623     8.89277674    16.25226467
      3      C     9.14595844     4.37169435    16.22146832
      4      C    11.00870515     4.56345610    14.29918107
      5      C    11.63777076     6.91587319    13.28094012
      6      C    10.57565870     9.09055994    14.33493547
      7      H    11.98264717     2.83147729    13.77126544
      8      H     8.66563857     2.50832281    16.97588247
      9      H     6.48819251     6.37910804    18.58621764
     10      H     7.87403065    10.61713833    17.02710188
     11      H    11.19493014    10.98382961    13.82537574
 
Lattice vectors (bohr)
      1    16.48056584     0.00000000     0.00000000
      2     0.00000000    14.28693452     0.00000000
 
Atoms
  Index Symbol   x (angstrom)   y (angstrom)   z (angstrom)
      1      C     4.20909112     3.45628310     9.07132286
      2      C     4.60859175     4.70585479     8.60032809
      3      C     4.83983278     2.31340102     8.58403136
      4      C     5.82555589     2.41487697     7.56680076
      5      C     6.15844307     3.65972249     7.02797085
      6      C     5.59639757     4.81051715     7.58572117
      7      H     6.34094381     1.49835325     7.28743983
      8      H     4.58565845     1.32734727     8.98325014
      9      H     3.43340362     3.37567860     9.83540281
     10      H     4.16675758     5.61834765     9.01035428
     11      H     5.92410191     5.81239232     7.31607377
 
Lattice vectors (angstrom)
      1     8.72113986     0.00000000     0.00000000
      2     0.00000000     7.56032016     0.00000000
 
Total System Charge             0.00000
 

   LockSharedArrayModule: size of slices    32 exact locking     T

 Using the following basis set files:
 
 C              : /home/ag_tonner/chemsoft/lx24-amd64/adf2018.105/atomicdata/Band/DZP/C.1s
 H              : /home/ag_tonner/chemsoft/lx24-amd64/adf2018.105/atomicdata/Band/DZP/H

 Settings for Grimme 3 dispersion correction

      damping                        BJ
      s6                          1.000
      a1                          0.429
      s8                          0.788
      a2                          4.441

 Other (technical) parameters

      alpha                      14.000
      version                         4
 



 =====================
 C O N F I N E M E N T
 =====================
  
 Basis functions confinement radius        20.000
 Width                                      2.000



 ===============================
 M O D E L   P A R A M E T E R S
 ===============================
  
 DENSITY FUNCTIONAL POTENTIAL (scf)
    LDA:                               VWN                                      
    Gradient Corrections:              PBEc PBEx                               == Not Default ==
 DENSITY FUNCTIONAL ENERGY (post-scf)
    Gradient Corrections:              Becke88 Perdew86 PW91x PW91c EV93x PW...== Not Default ==

 SPIN  (restricted / unrestr.)
    Molecule:                          UNrestricted                            == Not Default ==

 OTHER ASPECTS
    Relativistic Corrections:          scalar (ZORA,APA)                       == Not Default ==

    Nuclear Charge Density Model:      Point Charge Nuclei                      



 ========================
 S. C. F.   O P T I O N S
 ========================
  

 * DIIS settings info for DIRAC   *
    Cond              0.1E+07
    CLarge          20.00
    CHuge           50.00
    DiMix            1.00
    IopPly              1
    NCyDmp              5
    IPrint              0
    Adaptable           F
    Method         diis                
    Dimix Decay fac  1.00

 * DIIS settings info for SCF     *
    Cond              0.1E+07
    CLarge          20.00
    CHuge           20.00
    DiMix            0.20
    IopPly              1
    NCyDmp              1
    IPrint              0
    Adaptable           T
    Method         DIIS                
    Dimix Decay fac  1.00
 growth factor   1.10000000000000     
 shrink factor  0.909090909100000     

    Mix            0.2000
    Degenerate          F
    Edegen          1.0E-04
    SCFRTX           9.90
    Convrg          1.0E-06
    Ncyclx            300
    Vsplit          5.0E-02
 getinp: use Shared Memory T
 blockIterator: dynamic default: T
 K-points configuration loaded from previous results: GOStep1.rkf




                             **  R A D I A L   F U N C T I O N S  **

 TOTAL NR. OF TYPES OF ATOMS                              2




                             ---------------------
                                   T Y P E   1
                             ---------------------

 RADIAL POINTS                                         3000




 ............................ D I R A C ................................

 NUCLEAR CHARGE                                 6.0000               **>  C  <**
 (POINT NUCLEUS)
 VALENCE CHARGE                                 4.0000
 NET CHARGE                                     0.0000

 VALENCE ORBITALS INCLUDED IN THE CRYSTAL BASIS
 NR. OF (RADIAL) CORE FUNCTIONS                 1
 Radial grid       nr of points               3000
                   range                      0.10E-05     0.10E+03
  
  ** SCF-FUNCTIONAL INFO **
    ZORA
    SCALAR
  
 Self consistent error   0.18E-08


  Orbital    Q         E(a.u.)     E(eV)           <R>
 -------------------------------------------------------------------
  1S         2.00    -10.050188       -273.4795   0.271
  2S         2.00     -0.505399        -13.7526   1.571
  2P         2.00     -0.194278         -5.2866   1.799


 Sum (energy eigenvalues)                     -21.4997
 Total energy LDA                             -37.4486
              + Becke88                       -38.0235
              + Becke88+Perdew86              -37.8257
              + Perdew-Wang (91) X            -38.0083
              + Perdew-Wang (91) X+C          -37.8070
              + EV93x+PW91c                   -38.0194
              + PW86x+Perdew86c               -37.8745
              + Becke88+LYP                   -38.1993
              + Becke (alt)                   -38.0235
              + PBE                           -37.7748
              + RPBE                          -37.8379
 Kinetic energy                                37.6740
 Classical e-e repulsion                       17.6991
 e-nucl. attraction.                          -88.0675

 ......................................................................


 Sum first order eigenvalues                  -21.4911
 First order  LDA                             -37.4400
              + Becke88                       -38.0149
              + Becke88+Perdew86              -37.8171
              + Perdew-Wang (91) X            -37.9997
              + Perdew-Wang (91) X+C          -37.7985
              + EV93x+PW91c                   -38.0108
              + PW86x+Perdew86c               -37.8659
              + Becke88+LYP                   -38.1907
              + Becke (alt)                   -38.0149
              + PBE                           -37.7662
              + RPBE                          -37.8293

 ......................................................................




 SLATER TYPE ORBITAL SETS
   2   0    1.9800
   2   1    2.2000
   3   2    2.2000
 nRadialFuncs=           0
 summary of added auto gaussians
                   Type             valence
            Spher. Harm                 zlm
    Nr. of radial func.                   0
 summary of added auto kin gaussians
                   Type     valence kinetic
            Spher. Harm                 zlm
    Nr. of radial func.                   0

 NR. OF RADIAL VALENCE ORBITALS                           5
 NR. OF RADIAL CORE ORBITALS                              1
 NR. OF RADIAL FIT FUNCTIONS                              0




                             ---------------------
                                   T Y P E   2
                             ---------------------

 RADIAL POINTS                                         3000




 ............................ D I R A C ................................

 NUCLEAR CHARGE                                 1.0000               **>  H  <**
 (POINT NUCLEUS)
 VALENCE CHARGE                                 1.0000
 NET CHARGE                                     0.0000

 VALENCE ORBITALS INCLUDED IN THE CRYSTAL BASIS
 Radial grid       nr of points               3000
                   range                      0.10E-05     0.10E+03
  
  ** SCF-FUNCTIONAL INFO **
    ZORA
    SCALAR
  
 Self consistent error   0.58E-08


  Orbital    Q         E(a.u.)     E(eV)           <R>
 -------------------------------------------------------------------
  1S         1.00     -0.238623         -6.4932   1.635


 Sum (energy eigenvalues)                      -0.2386
 Total energy LDA                              -0.4454
              + Becke88                        -0.4891
              + Becke88+Perdew86               -0.4653
              + Perdew-Wang (91) X             -0.4852
              + Perdew-Wang (91) X+C           -0.4603
              + EV93x+PW91c                    -0.4830
              + PW86x+Perdew86c                -0.4666
              + Becke88+LYP                    -0.5024
              + Becke (alt)                    -0.4891
              + PBE                            -0.4589
              + RPBE                           -0.4655
 Kinetic energy                                 0.4474
 Classical e-e repulsion                        0.2899
 e-nucl. attraction.                           -0.9448

 ......................................................................


 Sum first order eigenvalues                   -0.2386
 First order  LDA                              -0.4454
              + Becke88                        -0.4891
              + Becke88+Perdew86               -0.4652
              + Perdew-Wang (91) X             -0.4852
              + Perdew-Wang (91) X+C           -0.4603
              + EV93x+PW91c                    -0.4830
              + PW86x+Perdew86c                -0.4666
              + Becke88+LYP                    -0.5024
              + Becke (alt)                    -0.4891
              + PBE                            -0.4589
              + RPBE                           -0.4655

 ......................................................................




 SLATER TYPE ORBITAL SETS
   1   0    1.2800
   2   1    1.2500
 nRadialFuncs=           0
 summary of added auto gaussians
                   Type             valence
            Spher. Harm                 zlm
    Nr. of radial func.                   0
 summary of added auto kin gaussians
                   Type     valence kinetic
            Spher. Harm                 zlm
    Nr. of radial func.                   0

 NR. OF RADIAL VALENCE ORBITALS                           3
 NR. OF RADIAL CORE ORBITALS                              0
 NR. OF RADIAL FIT FUNCTIONS                              0



 ======================================================
 R A N G E S    F O R    A T O M I C    O R B I T A L S
 ======================================================
  
   --------------------------------------------------------------------------------
                            valence            core valence kinetic    core kinetic
   --------------------------------------------------------------------------------

             Cutoff       1.000E-07       1.000E-07       1.000E-07       1.000E-07
   --------------------------------------------------------------------------------
 
   --------------------------------------------------------------------------------
               Type         valence            core valence kinetic    core kinetic
   --------------------------------------------------------------------------------
                  C           24.80            4.31           24.95            4.33
                  H           23.61            0.00           24.05            0.00
   --------------------------------------------------------------------------------
 



 ====================
 R U N    C O N F I G
 ====================
  
 
 Use Symmetry  .  .  .  .  .  .  .  .  .  .  .  .  .  .  .  .  F
 Calculate gradient of basis  .  .  .  .  .  .  .  .  .  .  .  T
 Calculate sec. der. of basis .  .  .  .  .  .  .  .  .  .  .  F
 Calculate operator T working on basis .  .  .  .  .  .  .  .  T
 Calculate dk-basis  .  .  .  .  .  .  .  .  .  .  .  .  .  .  F
 Calculate gradient of fit .  .  .  .  .  .  .  .  .  .  .  .  T
 Calculate sec. der. of fit.  .  .  .  .  .  .  .  .  .  .  .  T
 Calculate gradient of fit pot.  .  .  .  .  .  .  .  .  .  .  F
 Kin. energy via grad.  .  .  .  .  .  .  .  .  .  .  .  .  .  F
 Turnover rule for xc.  .  .  .  .  .  .  .  .  .  .  .  .  .  F
 Calculate gradient of energy .  .  .  .  .  .  .  .  .  .  .  T
 Calculate analytical strain derivatives  .  .  .  .  .  .  .  F
 Calculate kin. energy density.  .  .  .  .  .  .  .  .  .  .  F
 Calculate nuc. grad of kin. energy density  .  .  .  .  .  .  F
 Calculate der. of density .  .  .  .  .  .  .  .  .  .  .  .  T
 Calculate second der. of density.  .  .  .  .  .  .  .  .  .  T
 Calculate nuc. grad. of density .  .  .  .  .  .  .  .  .  .  T
 Calculate nuc. grad. of grad. density .  .  .  .  .  .  .  .  F
 Exact rho during SCF.  .  .  .  .  .  .  .  .  .  .  .  .  .  T
 Exact grad. rho during SCF.  .  .  .  .  .  .  .  .  .  .  .  F
 Exact grad. rho post SCF  .  .  .  .  .  .  .  .  .  .  .  .  T
 Store history of dens. matrix.  .  .  .  .  .  .  .  .  .  .  T
 Store original Bloch functions  .  .  .  .  .  .  .  .  .  .  F
 Direct fit .  .  .  .  .  .  .  .  .  .  .  .  .  .  .  .  .  F
 Direct basis  .  .  .  .  .  .  .  .  .  .  .  .  .  .  .  .  T
 STO based fitting.  .  .  .  .  .  .  .  .  .  .  .  .  .  .  F
 Zlm fitting.  .  .  .  .  .  .  .  .  .  .  .  .  .  .  .  .  T
 Calculate fragment energy in mol. grid.  .  .  .  .  .  .  .  T
 Map atoms to unit cell .  .  .  .  .  .  .  .  .  .  .  .  .  T
 Calculate DOS .  .  .  .  .  .  .  .  .  .  .  .  .  .  .  .  F
 Calculate band structure  .  .  .  .  .  .  .  .  .  .  .  .  F
 Calculate EFG .  .  .  .  .  .  .  .  .  .  .  .  .  .  .  .  F
 Calculate properties.  .  .  .  .  .  .  .  .  .  .  .  .  .  T
 Calculate kinetic energy  .  .  .  .  .  .  .  .  .  .  .  .  T
 Save file tape10 .  .  .  .  .  .  .  .  .  .  .  .  .  .  .  F
 Save file Points .  .  .  .  .  .  .  .  .  .  .  .  .  .  .  F



 ==================================================
 G E O M E T R Y    I N    X - Y - Z    F O R M A T
 ==================================================
  
 C      -3.232017709     2.660692742     0.810532318
 C      -2.832517077    -3.650055731     0.339537551
 C      -2.601276051     1.517810661     0.323240821
 C      -1.615552943     1.619286611    -0.693989780
 C      -1.282665761     2.864132125    -1.232819688
 C      -1.844711257    -3.545393369    -0.675069369
 H      -1.100165022     0.702762892    -0.973350704
 H      -2.855450382     0.531756907     0.722459601
 H      -4.007705211     2.580088241     1.574612274
 H      -3.274351252    -2.737562874     0.749563742
 H      -1.517006921    -2.543518207    -0.944716765
 VEC1     8.721139862     0.000000000     0.000000000
 VEC2     0.000000000     7.560320162     0.000000000

   Total nr. of atoms:         11





                       2 - D I M E N S I O N A L   C R Y S T A L


                             IN K-SPACE ONLY THE GAMMA POINT




   REAL SPACE LATTICE VECTORS                         LENGTH
   --------------------------                         ------
   1)  16.4805658365   0.0000000000                   16.481
   2)   0.0000000000  14.2869345229                   14.287

   ----------------------------------------
   Angles between lattice vectors
   ----------------------------------------

     pair          angle

     2 1            90.000000
 


 SMALLEST INTERATOMIC DISTANCE =      2.055969015420
 BeckeGrid: periodic partition function using cells up to order            5



 ===============================
 K - S P A C E   S A M P L I N G
 ===============================
  
 Custom Regular k-space grid.
 
   Single k-point



 =========
 C E L L S
 =========
  

   Nr. of cells for valence functions:         41



 ===========================
 L I N E A R   S C A L I N G
 ===========================
  
 Neglecting functions
              Valence  1.00E-07
                 Core  1.00E-07
                  Fit  0.00E+00
            Multipole  1.00E-08
   Screening function  3.16E-05



 =========================================
 N U M E R I C A L   I N T E G R A T I O N
 =========================================
  
 Becke grid quality: GOOD           
  
 Lebedev angular grid order:             min:  11 max:  31
 Nr. of radial points:                   min:  56 max:  65

 Total nr. of points                                 140160
 Block length                                           128
 Nr. of unique blocks                                  1095
 Total nr. of blocks                                   1095

 Percentage dummy points                               0.00%
 Nr. of k-points processed together in baspnt            30
 Nr. of symmetry operators (real space)                   1
 Symmetry operators in k-space                            2



 Total charge,    analytically                           41.000000000000
                  numerically                            40.999991962569
                  relative error                     -0.20E-06

 Valence density, analytically                           29.000000000000
                  numerically                            28.999997704058
                  relative error                     -0.79E-07



 INTEGRATED CHARGE PER ATOM:

  SET      TOTAL CHARGE      REL. ERROR      Valence CHARGE    REL. ERROR
 ------------------------------------------------------------------------
   1       5.9999973369      -0.444E-06      4.0000003925       0.981E-07
   2       5.9999976705      -0.388E-06      3.9999995969      -0.101E-06
   3       5.9999982964      -0.284E-06      3.9999999716      -0.709E-08
   4       5.9999984107      -0.265E-06      3.9999988946      -0.276E-06
   5       6.0000021903       0.365E-06      3.9999999097      -0.226E-07
   6       5.9999989622      -0.173E-06      3.9999998430      -0.393E-07
   7       0.9999990815      -0.918E-06      0.9999990815      -0.918E-06
   8       1.0000008067       0.807E-06      1.0000008067       0.807E-06
   9       1.0000000703       0.703E-07      1.0000000703       0.703E-07
  10       1.0000006881       0.688E-06      1.0000006881       0.688E-06
  11       0.9999984490      -0.155E-05      0.9999984490      -0.155E-05

 Norms of functions from routine baspnt
 Maximum error in norms     3.032E-06 for function      100
 Minimum accuracy required  1.000E-03

 Norms of functions from routine corpnt
 Maximum error in norms     1.579E-06 for function        1
 Minimum accuracy required  1.000E-03

 Sparseness info - valence
   nr. of functions             103
   max. nr. of functions        103
   min. nr. of functions         55
   avr. nr. of functions        101
   percentage stored           98.1
 

 Sparseness info - core
   nr. of functions               6
   max. nr. of functions          6
   min. nr. of functions          0
   avr. nr. of functions          2
   percentage stored           33.3
 

 Frozen core overlap error  1.71E-04
 PrepareHam: needLdotB F



 ========================
 Density Fitting (zlmFit)
 ========================
  
 ZlmFit Fit Quality: GOOD           
  
 Max L-expansion:                        min:   7 max:   8
 Nr. of radial interpolation points:     min:  72 max:  84
 BeckeGrid: periodic partition function using cells up to order            5
 skipDiagonalization F parmix=  0.200000000000000      ncylx=         300
 restartSCF T
 forceRestartSolution F



                                          *******************************
                                          *  S C F   P R O C E D U R E  *
                                          *******************************
  

 Nr. of basis functions                  103
 Nr. of core functions                     6
 Nr. of fit functions                      0
 Nr. of symmetry unique K-points           1
 Valence charge                           29.00

 Settings for convergence
 --------------------------------------------------------------------------------
   Initial density:          psi
   start. from max. spin     T
 --------------------------------------------------------------------------------

 IsContained? T
 map           1           2           3           4           5           6
           7           8           9          10          11          12
          13          14          15          16          17          18
          19          20          21          22          23          24
          25          26          27          28          29          30
          31          32          33          34          35          36
          37          38          39          40          41          42
          43          44          45          46          47          48
          49          50          51          52          53          54
          55          56          57          58          59          60
          61          62          63          64          65          66
          67          68          69          70          71          72
          73          74          75          76          77          78
          79          80          81          82          83          84
          85          86          87          88          89          90
          91          92          93          94          95          96
          97          98          99         100         101         102
         103
 restarting scf, max mismatch in geometries:   0.107785194748082     
 cyc=  0 err=7.46E-07 cpu=   7s ela=   8s
 cyc=  1 err=1.16E-02 meth=m nvec= 1 mix=0.2200 cpu=   7s ela=   8s fit=5.03E-03
 cyc=  2 err=5.87E-03 meth=d nvec= 2 mix=0.4716 cpu=   7s ela=   8s fit=5.03E-03
 cyc=  3 err=2.95E-03 meth=d nvec= 3 mix=0.4716 cpu=   7s ela=   8s fit=5.03E-03
 cyc=  4 err=1.05E-03 meth=d nvec= 4 mix=0.4716 cpu=   7s ela=   7s fit=5.03E-03
 cyc=  5 err=4.89E-04 meth=d nvec= 5 mix=0.4716 cpu=   7s ela=   7s fit=5.03E-03
 cyc=  6 err=1.43E-04 meth=d nvec= 6 mix=0.4716 cpu=   7s ela=   7s fit=5.03E-03
 cyc=  7 err=6.74E-05 meth=d nvec= 7 mix=0.4716 cpu=   7s ela=   8s fit=5.03E-03
 cyc=  8 err=2.39E-05 meth=d nvec= 8 mix=0.4716 cpu=   7s ela=   8s fit=5.03E-03
 cyc=  9 err=1.41E-05 meth=d nvec= 8 mix=0.5187 cpu=   7s ela=   8s fit=5.03E-03
 cyc= 10 err=9.08E-06 meth=d nvec= 8 mix=0.5527 cpu=   7s ela=   8s fit=5.03E-03
 cyc= 11 err=5.47E-06 meth=d nvec= 8 mix=0.5527 cpu=   7s ela=   7s fit=5.03E-03
 cyc= 12 err=2.24E-06 meth=d nvec= 8 mix=0.5527 cpu=   7s ela=   7s fit=5.03E-03

 CONVERGENCE REACHED
 cyc= 13 err=9.34E-07 meth=d nvec= 9 mix=0.5527 cpu=   7s ela=   7s fit=5.03E-03


         -------------------- CYCLE   14 --------------------
 Self consistent error (density)                       9.34E-07



                                             *************************
                                             *  P R O P E R T I E S  *
                                             *************************
  



 ===================================
 B A N D   E N E R G Y   R A N G E S
 ===================================
  
 The energies below are in Hartree.
 ========================================================================================
       band      min(up)      max(up)    occup(up)      min(dn)      max(dn)    occup(dn)
 ========================================================================================
          1     -0.80405     -0.80405      1.00000     -0.79838     -0.79838      1.00000
          2     -0.70111     -0.70111      1.00000     -0.69796     -0.69796      1.00000
          3     -0.70066     -0.70066      1.00000     -0.69217     -0.69217      1.00000
          4     -0.56969     -0.56969      1.00000     -0.56677     -0.56677      1.00000
          5     -0.56126     -0.56126      1.00000     -0.55248     -0.55248      1.00000
          6     -0.48596     -0.48596      1.00000     -0.48128     -0.48128      1.00000
          7     -0.42831     -0.42831      1.00000     -0.42362     -0.42362      1.00000
          8     -0.42780     -0.42780      1.00000     -0.42218     -0.42218      1.00000
          9     -0.39616     -0.39616      1.00000     -0.39380     -0.39380      1.00000
         10     -0.36918     -0.36918      1.00000     -0.35986     -0.35986      1.00000
         11     -0.35095     -0.35095      1.00000     -0.34744     -0.34744      1.00000
         12     -0.33182     -0.33182      1.00000     -0.32800     -0.32800      1.00000
         13     -0.25864     -0.25864      1.00000     -0.25086     -0.25086      1.00000
         14     -0.25081     -0.25081      1.00000     -0.25078     -0.25078      1.00000
         15     -0.23714     -0.23714      1.00000     -0.14743     -0.14743      0.00000
         16     -0.06717     -0.06717      0.00000     -0.06749     -0.06749      0.00000
         17     -0.06488     -0.06488      0.00000     -0.05381     -0.05381      0.00000
         18     -0.00049     -0.00049      0.00000      0.00184      0.00184      0.00000
         19      0.06242      0.06242      0.00000      0.06486      0.06486      0.00000
         20      0.07778      0.07778      0.00000      0.08513      0.08513      0.00000
         21      0.10595      0.10595      0.00000      0.10726      0.10726      0.00000
         22      0.13893      0.13893      0.00000      0.14191      0.14191      0.00000
         23      0.15890      0.15890      0.00000      0.16099      0.16099      0.00000
         24      0.20551      0.20551      0.00000      0.21401      0.21401      0.00000
         25      0.25010      0.25010      0.00000      0.25699      0.25699      0.00000
         26      0.26537      0.26537      0.00000      0.26723      0.26723      0.00000
         27      0.28577      0.28577      0.00000      0.29802      0.29802      0.00000
         28      0.31101      0.31101      0.00000      0.31985      0.31985      0.00000
         29      0.34353      0.34353      0.00000      0.34710      0.34710      0.00000
         30      0.38066      0.38066      0.00000      0.38191      0.38191      0.00000
         31      0.40072      0.40072      0.00000      0.41142      0.41142      0.00000
         32      0.43455      0.43455      0.00000      0.43952      0.43952      0.00000
         33      0.45462      0.45462      0.00000      0.45699      0.45699      0.00000
         34      0.45940      0.45940      0.00000      0.46192      0.46192      0.00000
         35      0.46198      0.46198      0.00000      0.46702      0.46702      0.00000
         36      0.46559      0.46559      0.00000      0.47124      0.47124      0.00000
         37      0.48213      0.48213      0.00000      0.48435      0.48435      0.00000
         38      0.49697      0.49697      0.00000      0.50045      0.50045      0.00000
         39      0.51207      0.51207      0.00000      0.52660      0.52660      0.00000
         40      0.52292      0.52292      0.00000      0.55678      0.55678      0.00000
         41      0.57763      0.57763      0.00000      0.57903      0.57903      0.00000
         42      0.60017      0.60017      0.00000      0.60281      0.60281      0.00000
         43      0.63441      0.63441      0.00000      0.65882      0.65882      0.00000
         44      0.68361      0.68361      0.00000      0.69521      0.69521      0.00000
         45      0.76131      0.76131      0.00000      0.76230      0.76230      0.00000
         46      0.76201      0.76201      0.00000      0.77259      0.77259      0.00000
         47      0.78264      0.78264      0.00000      0.78578      0.78578      0.00000
 ========================================================================================

----------------------------------------
Band gap information
----------------------------------------
Number of valence electrons                    29
Valence band index                             15
Valence band spin index                         1
Conduction band index                          15
Conduction band spin index                      2
Top of valence band (a.u.)                 -0.237
Bottom of conduction band (a.u.)           -0.147
Band gap (a.u.)                             0.090
Band gap (eV)                               2.441
Band gap (kcal/mol)                        56.299
 



 ===================================
 B A N D   E N E R G Y   R A N G E S
 ===================================
  
 The energies below are in Hartree.
 ========================================================================================
       band      min(up)      max(up)    occup(up)      min(dn)      max(dn)    occup(dn)
 ========================================================================================
          1     -0.80405     -0.80405      1.00000     -0.79838     -0.79838      1.00000
          2     -0.70111     -0.70111      1.00000     -0.69796     -0.69796      1.00000
          3     -0.70066     -0.70066      1.00000     -0.69217     -0.69217      1.00000
          4     -0.56969     -0.56969      1.00000     -0.56677     -0.56677      1.00000
          5     -0.56126     -0.56126      1.00000     -0.55248     -0.55248      1.00000
          6     -0.48596     -0.48596      1.00000     -0.48128     -0.48128      1.00000
          7     -0.42831     -0.42831      1.00000     -0.42362     -0.42362      1.00000
          8     -0.42780     -0.42780      1.00000     -0.42218     -0.42218      1.00000
          9     -0.39616     -0.39616      1.00000     -0.39380     -0.39380      1.00000
         10     -0.36918     -0.36918      1.00000     -0.35986     -0.35986      1.00000
         11     -0.35095     -0.35095      1.00000     -0.34744     -0.34744      1.00000
         12     -0.33182     -0.33182      1.00000     -0.32800     -0.32800      1.00000
         13     -0.25864     -0.25864      1.00000     -0.25086     -0.25086      1.00000
         14     -0.25081     -0.25081      1.00000     -0.25078     -0.25078      1.00000
         15     -0.23714     -0.23714      1.00000     -0.14743     -0.14743      0.00000
         16     -0.06717     -0.06717      0.00000     -0.06749     -0.06749      0.00000
         17     -0.06488     -0.06488      0.00000     -0.05381     -0.05381      0.00000
         18     -0.00049     -0.00049      0.00000      0.00184      0.00184      0.00000
         19      0.06242      0.06242      0.00000      0.06486      0.06486      0.00000
         20      0.07778      0.07778      0.00000      0.08513      0.08513      0.00000
         21      0.10595      0.10595      0.00000      0.10726      0.10726      0.00000
         22      0.13893      0.13893      0.00000      0.14191      0.14191      0.00000
         23      0.15890      0.15890      0.00000      0.16099      0.16099      0.00000
         24      0.20551      0.20551      0.00000      0.21401      0.21401      0.00000
         25      0.25010      0.25010      0.00000      0.25699      0.25699      0.00000
         26      0.26537      0.26537      0.00000      0.26723      0.26723      0.00000
         27      0.28577      0.28577      0.00000      0.29802      0.29802      0.00000
         28      0.31101      0.31101      0.00000      0.31985      0.31985      0.00000
         29      0.34353      0.34353      0.00000      0.34710      0.34710      0.00000
         30      0.38066      0.38066      0.00000      0.38191      0.38191      0.00000
         31      0.40072      0.40072      0.00000      0.41142      0.41142      0.00000
         32      0.43455      0.43455      0.00000      0.43952      0.43952      0.00000
         33      0.45462      0.45462      0.00000      0.45699      0.45699      0.00000
         34      0.45940      0.45940      0.00000      0.46192      0.46192      0.00000
         35      0.46198      0.46198      0.00000      0.46702      0.46702      0.00000
         36      0.46559      0.46559      0.00000      0.47124      0.47124      0.00000
         37      0.48213      0.48213      0.00000      0.48435      0.48435      0.00000
         38      0.49697      0.49697      0.00000      0.50045      0.50045      0.00000
         39      0.51207      0.51207      0.00000      0.52660      0.52660      0.00000
         40      0.52292      0.52292      0.00000      0.55678      0.55678      0.00000
         41      0.57763      0.57763      0.00000      0.57903      0.57903      0.00000
         42      0.60017      0.60017      0.00000      0.60281      0.60281      0.00000
         43      0.63441      0.63441      0.00000      0.65882      0.65882      0.00000
         44      0.68361      0.68361      0.00000      0.69521      0.69521      0.00000
         45      0.76131      0.76131      0.00000      0.76230      0.76230      0.00000
         46      0.76201      0.76201      0.00000      0.77259      0.77259      0.00000
 ========================================================================================



 =============================
[...]
         22      0.13790      0.13790      0.00000      0.14056      0.14056      0.00000
         23      0.15731      0.15731      0.00000      0.15952      0.15952      0.00000
         24      0.20881      0.20881      0.00000      0.21767      0.21767      0.00000
         25      0.25305      0.25305      0.00000      0.25829      0.25829      0.00000
         26      0.26645      0.26645      0.00000      0.26841      0.26841      0.00000
         27      0.30230      0.30230      0.00000      0.31194      0.31194      0.00000
         28      0.30830      0.30830      0.00000      0.31899      0.31899      0.00000
         29      0.34551      0.34551      0.00000      0.34994      0.34994      0.00000
         30      0.38238      0.38238      0.00000      0.38370      0.38370      0.00000
         31      0.39734      0.39734      0.00000      0.40763      0.40763      0.00000
         32      0.43051      0.43051      0.00000      0.43670      0.43670      0.00000
         33      0.45394      0.45394      0.00000      0.45615      0.45615      0.00000
         34      0.45800      0.45800      0.00000      0.45984      0.45984      0.00000
         35      0.46063      0.46063      0.00000      0.46355      0.46355      0.00000
         36      0.46532      0.46532      0.00000      0.46898      0.46898      0.00000
         37      0.48507      0.48507      0.00000      0.48902      0.48902      0.00000
         38      0.50117      0.50117      0.00000      0.50524      0.50524      0.00000
         39      0.53117      0.53117      0.00000      0.55350      0.55350      0.00000
         40      0.54092      0.54092      0.00000      0.56687      0.56687      0.00000
         41      0.57399      0.57399      0.00000      0.57747      0.57747      0.00000
         42      0.60291      0.60291      0.00000      0.60501      0.60501      0.00000
         43      0.66599      0.66599      0.00000      0.68777      0.68777      0.00000
         44      0.69588      0.69588      0.00000      0.70691      0.70691      0.00000
         45      0.75615      0.75615      0.00000      0.75646      0.75646      0.00000
         46      0.76252      0.76252      0.00000      0.77824      0.77824      0.00000
 ========================================================================================



 =============================
 E N E R G Y   A N A L Y S I S
 =============================
  
 Formation energy w.r.t. spherically-symmetric spin-restricted atoms

                                                             (a.u.)            (eV)     (kCal/mol)
 --------------------------------------------------------------------------------------------------

 Kinetic                                                       2.44865819      66.6314     1536.56
 XC                                                           -2.28691312     -62.2301    -1435.06
 Electrostatic                                                -2.02131433     -55.0028    -1268.39
 V(atomic)*def                                                -0.88596581     -24.1084     -555.95
 V(def)*def                                                    0.21732250       5.9136      136.37
 Dispersion                                                   -0.01097197      -0.2986       -6.89
 --------------------------------------------------------------------------------------------------

 Final bond energy (PBE)                                      -2.53918454     -69.0947    -1593.36
 
 Fit error correction used (Vdef*err)                         -0.00001855      -0.0005       -0.01

 ==================================================================================================



 ================================
 E N E R G Y    G R A D I E N T S
 ================================
  
 (Energy gradients wrt nuclear displacements in Hartree per Bohr)
 
 P Matrix
    1  C -0.004210 -0.001431  0.002623
    2  C -0.003033 -0.000942  0.001650
    3  C -0.001915  0.004858  0.000746
    4  C  0.021395  0.035528 -0.025425
    5  C -0.109147 -0.010347  0.106787
    6  C  0.027246 -0.034007 -0.025028
    7  H -0.040783  0.073521  0.034235
    8  H  0.024981  0.085377 -0.032783
    9  H  0.065742  0.006302 -0.063160
   10  H  0.043223 -0.078831 -0.033274
   11  H -0.023501 -0.080028  0.033628
 Kinetic energy
    1  C  0.341622  0.033397 -0.343522
    2  C  0.175092 -0.410498 -0.137817
    3  C  0.089580  0.451430 -0.137048
    4  C -0.199697  0.603767  0.133504
    5  C -0.763801 -0.077090  0.752600
    6  C -0.074448 -0.644010  0.130218
    7  H -0.264513  0.474079  0.220354
    8  H  0.160447  0.531675 -0.205490
    9  H  0.427140  0.043592 -0.413315
   10  H  0.268592 -0.490969 -0.212723
   11  H -0.160014 -0.515374  0.213240
 XC energy
    1  C -0.002142 -0.000200  0.002186
    2  C -0.001661  0.001619  0.001378
    3  C -0.001268 -0.001955  0.001492
    4  C  0.000060 -0.003637  0.000351
    5  C  0.008350  0.000892 -0.008464
    6  C -0.000701  0.003553  0.000302
    7  H -0.000527 -0.000054  0.000551
    8  H -0.000527 -0.000054  0.000551
    9  H -0.000527 -0.000054  0.000551
   10  H -0.000527 -0.000054  0.000551
   11  H -0.000527 -0.000054  0.000551
 Electrostatic energy
    1  C -0.125104 -0.009506  0.131234
    2  C -0.037499  0.164033  0.027662
    3  C -0.006180 -0.185676  0.029796
    4  C  0.034160 -0.384059  0.008807
    5  C  0.644311  0.063161 -0.633256
    6  C -0.042261  0.397694  0.009400
    7  H  0.285310 -0.512538 -0.238515
    8  H -0.172993 -0.576810  0.222039
    9  H -0.460258 -0.046331  0.444218
   10  H -0.290995  0.533060  0.229587
   11  H  0.171509  0.556972 -0.230970
 Pair interactions
    1  C -0.209695 -0.022239  0.207312
    2  C -0.132478  0.246263  0.107049
    3  C -0.079943 -0.268915  0.104814
    4  C  0.143832 -0.251945 -0.117109
    5  C  0.220156  0.023301 -0.217522
    6  C  0.090079  0.276905 -0.114655
    7  H  0.020131 -0.035040 -0.016693
    8  H -0.012143 -0.039996  0.015631
    9  H -0.032479 -0.003434  0.031614
   10  H -0.020023  0.036623  0.015940
   11  H  0.012564  0.038477 -0.016380
 Dispersion
    1  C -0.000087 -0.000006  0.000095
    2  C -0.000031  0.000035  0.000022
    3  C -0.000007 -0.000028  0.000025
    4  C  0.000084 -0.000068 -0.000071
    5  C  0.000083  0.000005 -0.000093
    6  C  0.000052  0.000071 -0.000074
    7  H  0.000089 -0.000055 -0.000074
    8  H -0.000047 -0.000057  0.000070
    9  H -0.000113 -0.000011  0.000118
   10  H -0.000080  0.000067  0.000063
   11  H  0.000058  0.000047 -0.000081
 
 FINAL GRADIENTS
    1  C  0.000384  0.000015 -0.000072
    2  C  0.000388  0.000510 -0.000057
    3  C  0.000267 -0.000286 -0.000176
    4  C -0.000165 -0.000413  0.000057
    5  C -0.000048 -0.000077  0.000051
    6  C -0.000033  0.000205  0.000162
    7  H -0.000293 -0.000088 -0.000142
    8  H -0.000283  0.000135  0.000018
    9  H -0.000495  0.000064  0.000026
   10  H  0.000190 -0.000105  0.000144
   11  H  0.000088  0.000040 -0.000011
 



 ==========================
 D I P O L E    M O M E N T
 ==========================
  
   ==================================================
    direction       dipole (a.u.)      dipole (Debye)
   ==================================================
            z            0.236013            0.599885
   ==================================================



 Form Factors not computed: only 1 k-point.
   min. nr. of func/process                     6
   noper                                        1
   nfunc                                      109
   nprocsThisNode                              16
   nfuncThisProcess                             7
   safeMaxFuncSliceSize                         7
   requestedMaxFuncSliceSize                  128
   actual maxFuncSliceSize                      7
   numSlices                                    1
   storeCoopPerBasPair                          F
   nEnergies                                    1
       Nr. of bands used for DOS:     41
   nband_dosplot                               41
   bandSliceSize                               21
   num band slices                              2



 =======================================
 M U L L I K E N   P O P U L A T I O N S
 =======================================
  

 BASISFUNCTION         Q
 --------------------------------
 1/C/NO/2s                   0.669   0.672
 1/C/NO/2p_y                 0.207   0.210
 1/C/NO/2p_z                 0.372   0.388
 1/C/NO/2p_x                 0.368   0.383
 1/C/STO1.98/2s             -0.001  -0.001
 1/C/STO2.2/2p_y             0.202   0.202
 1/C/STO2.2/2p_z             0.104   0.103
 1/C/STO2.2/2p_x             0.108   0.107
 1/C/STO2.2/3d_xy            0.007   0.007
 1/C/STO2.2/3d_yz            0.007   0.007
 1/C/STO2.2/3d_z2            0.004   0.004
 1/C/STO2.2/3d_xz            0.005   0.005
 1/C/STO2.2/3d_x2-y2         0.008   0.008
                    -------------
 Charge on atom              2.061   2.094
 
 2/C/NO/2s                   0.680   0.672
 2/C/NO/2p_y                 0.289   0.288
 2/C/NO/2p_z                 0.340   0.317
 2/C/NO/2p_x                 0.344   0.320
 2/C/STO1.98/2s             -0.002  -0.001
 2/C/STO2.2/2p_y             0.174   0.173
 2/C/STO2.2/2p_z             0.121   0.121
 2/C/STO2.2/2p_x             0.120   0.121
 2/C/STO2.2/3d_xy            0.008   0.008
 2/C/STO2.2/3d_yz            0.008   0.007
 2/C/STO2.2/3d_z2            0.006   0.006
 2/C/STO2.2/3d_xz            0.004   0.004
 2/C/STO2.2/3d_x2-y2         0.006   0.006
                    -------------
 Charge on atom              2.098   2.042
 
 3/C/NO/2s                   0.680   0.672
 3/C/NO/2p_y                 0.305   0.305
 3/C/NO/2p_z                 0.340   0.316
 3/C/NO/2p_x                 0.329   0.305
 3/C/STO1.98/2s             -0.002  -0.002
 3/C/STO2.2/2p_y             0.168   0.167
 3/C/STO2.2/2p_z             0.121   0.121
 3/C/STO2.2/2p_x             0.126   0.127
 3/C/STO2.2/3d_xy            0.007   0.006
 3/C/STO2.2/3d_yz            0.007   0.007
 3/C/STO2.2/3d_z2            0.006   0.006
 3/C/STO2.2/3d_xz            0.005   0.005
 3/C/STO2.2/3d_x2-y2         0.008   0.007
                    -------------
 Charge on atom              2.100   2.044
 
 4/C/NO/2s                   0.664   0.672
 4/C/NO/2p_y                 0.252   0.274
 4/C/NO/2p_z                 0.323   0.359
 4/C/NO/2p_x                 0.328   0.362
 4/C/STO1.98/2s              0.003  -0.000
 4/C/STO2.2/2p_y             0.198   0.182
 4/C/STO2.2/2p_z             0.125   0.114
 4/C/STO2.2/2p_x             0.124   0.114
 4/C/STO2.2/3d_xy            0.010   0.007
 4/C/STO2.2/3d_yz            0.009   0.007
 4/C/STO2.2/3d_z2            0.006   0.005
 4/C/STO2.2/3d_xz            0.005   0.003
 4/C/STO2.2/3d_x2-y2         0.007   0.004
                    -------------
 Charge on atom              2.053   2.103
 
 5/C/NO/2s                   0.764   0.607
 5/C/NO/2p_y                 0.194   0.156
 5/C/NO/2p_z                 0.622   0.214
 5/C/NO/2p_x                 0.622   0.214
 5/C/STO1.98/2s              0.000   0.009
 5/C/STO2.2/2p_y             0.227   0.235
 5/C/STO2.2/2p_z             0.038   0.049
 5/C/STO2.2/2p_x             0.039   0.051
 5/C/STO2.2/3d_xy            0.008   0.008
 5/C/STO2.2/3d_yz            0.007   0.008
 5/C/STO2.2/3d_z2            0.004   0.005
 5/C/STO2.2/3d_xz            0.002   0.003
 5/C/STO2.2/3d_x2-y2         0.008   0.008
                    -------------
 Charge on atom              2.535   1.566
 
 6/C/NO/2s                   0.664   0.673
 6/C/NO/2p_y                 0.272   0.290
 6/C/NO/2p_z                 0.322   0.359
 6/C/NO/2p_x                 0.309   0.348
 6/C/STO1.98/2s              0.003  -0.001
 6/C/STO2.2/2p_y             0.188   0.177
 6/C/STO2.2/2p_z             0.126   0.114
 6/C/STO2.2/2p_x             0.133   0.119
 6/C/STO2.2/3d_xy            0.008   0.007
 6/C/STO2.2/3d_yz            0.008   0.007
 6/C/STO2.2/3d_z2            0.006   0.005
 6/C/STO2.2/3d_xz            0.006   0.003
 6/C/STO2.2/3d_x2-y2         0.010   0.005
                    -------------
 Charge on atom              2.054   2.104
 
 7/H/NO/1s                  -0.045  -0.049
 7/H/STO1.28/1s              0.445   0.432
 7/H/STO1.25/2p_y            0.002   0.002
 7/H/STO1.25/2p_z            0.007   0.007
 7/H/STO1.25/2p_x            0.006   0.006
                    -------------
 Charge on atom              0.415   0.398
 
 8/H/NO/1s                  -0.020  -0.021
 8/H/STO1.28/1s              0.427   0.421
 8/H/STO1.25/2p_y            0.001   0.001
 8/H/STO1.25/2p_z            0.007   0.007
 8/H/STO1.25/2p_x            0.007   0.007
                    -------------
 Charge on atom              0.423   0.415
 
 9/H/NO/1s                  -0.009  -0.017
 9/H/STO1.28/1s              0.415   0.420
 9/H/STO1.25/2p_y            0.006   0.006
 9/H/STO1.25/2p_z            0.005   0.005
 9/H/STO1.25/2p_x            0.005   0.005
                    -------------
 Charge on atom              0.422   0.419
 
 10/H/NO/1s                 -0.017  -0.017
 10/H/STO1.28/1s             0.425   0.419
 10/H/STO1.25/2p_y           0.002   0.002
 10/H/STO1.25/2p_z           0.007   0.007
 10/H/STO1.25/2p_x           0.007   0.007
                    -------------
 Charge on atom              0.425   0.417
 
 11/H/NO/1s                 -0.047  -0.052
 11/H/STO1.28/1s             0.446   0.434
 11/H/STO1.25/2p_y           0.001   0.001
 11/H/STO1.25/2p_z           0.007   0.007
 11/H/STO1.25/2p_x           0.007   0.007
                    -------------
 Charge on atom              0.414   0.397
 
 Total charge               15.000  14.000


 ATOM/ATOM OVERLAP MATRIX
 (OFF-DIAGONAL ELEMENTS HALF OF OVERLAP POPULATION)
 (order of atoms as on input)

              ** SPIN 1
 ATOM         CORE    1       2       3       4       5       6       7       8       9
           -------------------------------------------------------------------------------
   0)
      1 :  0.0102
   1)
      1 : -0.0014  1.5123
   2)
      1 : -0.0014  0.2717  1.5767
   3)
      1 : -0.0014  0.2732 -0.0473  1.5766
   4)
      1 : -0.0017 -0.0555 -0.0249  0.2570  1.4973
   5)
      1 : -0.0032 -0.0310 -0.0713 -0.0705  0.2655  2.2496
   6)
      1 : -0.0017 -0.0552  0.2572 -0.0247 -0.0603  0.2676  1.4971
   7)
      1 :  0.0002  0.0028 -0.0020 -0.0311  0.2011 -0.0365  0.0034  0.2826
   8)
      1 :  0.0001 -0.0306  0.0054  0.1980 -0.0325  0.0050 -0.0017 -0.0063  0.2928
   9)
      1 :  0.0002  0.2025 -0.0344 -0.0337  0.0057 -0.0086  0.0055  0.0002 -0.0087  0.3010
  10)
      1 :  0.0001 -0.0306  0.2008  0.0056 -0.0018  0.0045 -0.0317  0.0011 -0.0004 -0.0081
     11 :  0.2916
  11)
      1 :  0.0002  0.0030 -0.0322 -0.0020  0.0034 -0.0362  0.1989 -0.0005  0.0019  0.0001
     11 : -0.0062  0.2833

              ** SPIN 2
 ATOM         CORE    1       2       3       4       5       6       7       8       9
           -------------------------------------------------------------------------------
   0)
      1 :  0.0097
   1)
      1 : -0.0015  1.5479
   2)
      1 : -0.0016  0.2696  1.4883
   3)
      1 : -0.0016  0.2712 -0.0529  1.4884
   4)
      1 : -0.0018 -0.0596 -0.0251  0.2557  1.5425
   5)
      1 : -0.0022 -0.0232 -0.0411 -0.0406  0.2890  1.1459
   6)
      1 : -0.0018 -0.0593  0.2560 -0.0248 -0.0606  0.2905  1.5427
   7)
      1 :  0.0002  0.0031 -0.0011 -0.0243  0.1904 -0.0282  0.0030  0.2618
   8)
      1 :  0.0001 -0.0303  0.0055  0.1985 -0.0331  0.0026 -0.0017 -0.0071  0.2867
   9)
      1 :  0.0001  0.2027 -0.0310 -0.0304  0.0047 -0.0011  0.0046  0.0005 -0.0067  0.2818
  10)
      1 :  0.0001 -0.0302  0.2009  0.0055 -0.0018  0.0023 -0.0324  0.0011 -0.0010 -0.0063
     11 :  0.2861
  11)
      1 :  0.0002  0.0033 -0.0251 -0.0010  0.0030 -0.0277  0.1883 -0.0014  0.0017  0.0004
     11 : -0.0070  0.2618



 ======================
 Atomic Charge Analysis
 ======================
  
 Deformation charges with respect to neutral atoms.
 
   ----------------------------------------------------------
     Atom      Hirshfeld     Voronoi         CM5    Mulliken
   ----------------------------------------------------------
      1  C        -0.051      -0.055      -0.106      -0.155
      2  C        -0.041      -0.044      -0.096      -0.141
      3  C        -0.042      -0.045      -0.096      -0.143
      4  C        -0.057      -0.066      -0.109      -0.157
      5  C        -0.014      -0.024      -0.021      -0.101
      6  C        -0.058      -0.068      -0.109      -0.159
      7  H         0.056       0.064       0.110       0.187
      8  H         0.051       0.059       0.106       0.162
      9  H         0.050       0.054       0.105       0.159
     10  H         0.051       0.056       0.106       0.158
     11  H         0.055       0.068       0.110       0.190
   ----------------------------------------------------------
      Total:       0.000      -0.000       0.000      -0.000
   ----------------------------------------------------------
 



 ============================================
 Atomic Charge Analysis (Spin Up - Spin Down)
 ============================================
  
   ----------------------------------------------------------
     Atom      Hirshfeld     Voronoi         CM5    Mulliken
   ----------------------------------------------------------
      1  C         0.015       0.023       0.015       0.032
      2  C        -0.042      -0.044      -0.042      -0.056
      3  C        -0.042      -0.044      -0.042      -0.056
      4  C        -0.054      -0.003      -0.054       0.050
      5  C        -0.767      -0.860      -0.767      -0.969
      6  C        -0.054      -0.003      -0.054       0.050
      7  H        -0.019      -0.022      -0.019      -0.017
      8  H        -0.010      -0.013      -0.010      -0.008
      9  H        -0.000       0.001      -0.000      -0.002
     10  H        -0.010      -0.013      -0.010      -0.008
     11  H        -0.019      -0.022      -0.019      -0.017
   ----------------------------------------------------------
      Total:      -1.000      -1.000      -1.000      -1.000
   ----------------------------------------------------------
 
 WARNING: matrix written, but never read. Matrix name: S(VOC/VOC)


    =====================
     CALCULATION RESULTS
    =====================

Energy (hartree)            -2.53918454

Gradients (hartree/bohr)
  Index   Atom            d/dx            d/dy            d/dz
      1      C    0.0003836571    0.0000154700   -0.0000724833
      2      C    0.0003884698    0.0005102601   -0.0000565782
      3      C    0.0002673647   -0.0002857255   -0.0001758361
      4      C   -0.0001652940   -0.0004132215    0.0000567243
      5      C   -0.0000477338   -0.0000767893    0.0000514650
      6      C   -0.0000329963    0.0002053363    0.0001623156
      7      H   -0.0002931750   -0.0000883283   -0.0001421902
      8      H   -0.0002829527    0.0001346638    0.0000181329
      9      H   -0.0004954368    0.0000641760    0.0000259476
     10      H    0.0001898308   -0.0001053824    0.0001438437
     11      H    0.0000882662    0.0000395407   -0.0000113412



 =================
 Timing Statistics
 =================
  
 Total Used :                     CPU=     2085.20      System=      119.28     Elapsed=     2265.33

 Calls  Section                     ( Mean, Percentage )
 ---------------------------------------------------------------------------------------------------
    25  ><      ................      2.54    3.05             0.20    4.23             2.77    3.06
    23  GETINP  ................      3.07    3.39             0.40    7.63             3.65    3.71
   265  EIGSYS  ................      7.36   93.56             0.40   88.14             7.97   93.24

AMS application finished. Exiting.
 NORMAL TERMINATION
     Total cpu time:    2089.62
  Total system time:     120.16
 Total elapsed time:    2270.84
