 108 108   0   0
  0.1253601E+02  0.1216996E-08  0.1234871E-08  0.9026082E-09  0.5000000E-15
  1.000000000000000E-004
  CAR 
 unknown system                          
     66.47426917    -66.23517768  301      4.36040870      1.00000000
    -66.235  0.0000E+00  0.0000E+00
    -65.793  0.0000E+00  0.0000E+00
    -65.350  0.0000E+00  0.0000E+00
    -64.908  0.0000E+00  0.0000E+00
    -64.466  0.0000E+00  0.0000E+00
    -64.023  0.0000E+00  0.0000E+00
    -63.581  0.0000E+00  0.0000E+00
    -63.139  0.0000E+00  0.0000E+00
    -62.696  0.0000E+00  0.0000E+00
    -62.254  0.0000E+00  0.0000E+00
    -61.812  0.0000E+00  0.0000E+00
    -61.369  0.0000E+00  0.0000E+00
    -60.927  0.0000E+00  0.0000E+00
    -60.484  0.3765E-14  0.1665E-14
    -60.042  0.4521E+01  0.2000E+01
    -59.600  0.0000E+00  0.2000E+01
    -59.157  0.0000E+00  0.2000E+01
    -58.715  0.0000E+00  0.2000E+01
    -58.273  0.0000E+00  0.2000E+01
    -57.830  0.0000E+00  0.2000E+01
    -57.388  0.0000E+00  0.2000E+01
    -56.946  0.0000E+00  0.2000E+01
    -56.503  0.0000E+00  0.2000E+01
    -56.061  0.0000E+00  0.2000E+01
    -55.618  0.0000E+00  0.2000E+01
    -55.176  0.0000E+00  0.2000E+01
    -54.734  0.2008E-14  0.2000E+01
    -54.291  0.2840E+02  0.1456E+02
    -53.849  0.7624E+02  0.5600E+02
    -53.407  0.0000E+00  0.5600E+02
    -52.964  0.0000E+00  0.5600E+02
    -52.522  0.0000E+00  0.5600E+02
    -52.080  0.0000E+00  0.5600E+02
    -51.637  0.0000E+00  0.5600E+02
    -51.195  0.0000E+00  0.5600E+02
    -50.752  0.0000E+00  0.5600E+02
    -50.310  0.0000E+00  0.5600E+02
    -49.868  0.0000E+00  0.5600E+02
    -49.425  0.0000E+00  0.5600E+02
    -48.983  0.0000E+00  0.5600E+02
    -48.541  0.0000E+00  0.5600E+02
    -48.098  0.0000E+00  0.5600E+02
    -47.656  0.0000E+00  0.5600E+02
    -47.213  0.0000E+00  0.5600E+02
    -46.771  0.1177E-03  0.5600E+02
    -46.329  0.3617E+02  0.7200E+02
    -45.886  0.3617E+02  0.8800E+02
    -45.444  0.0000E+00  0.8800E+02
    -45.002  0.0000E+00  0.8800E+02
    -44.559  0.0000E+00  0.8800E+02
    -44.117  0.0000E+00  0.8800E+02
    -43.675  0.0000E+00  0.8800E+02
    -43.232  0.0000E+00  0.8800E+02
    -42.790  0.0000E+00  0.8800E+02
    -42.347  0.0000E+00  0.8800E+02
    -41.905  0.0000E+00  0.8800E+02
    -41.463  0.0000E+00  0.8800E+02
    -41.020  0.0000E+00  0.8800E+02
    -40.578  0.0000E+00  0.8800E+02
    -40.136  0.0000E+00  0.8800E+02
    -39.693  0.0000E+00  0.8800E+02
    -39.251  0.0000E+00  0.8800E+02
    -38.809  0.0000E+00  0.8800E+02
    -38.366  0.0000E+00  0.8800E+02
    -37.924  0.0000E+00  0.8800E+02
    -37.481  0.0000E+00  0.8800E+02
    -37.039  0.0000E+00  0.8800E+02
    -36.597  0.8465E-02  0.8800E+02
    -36.154  0.1225E+02  0.9342E+02
    -35.712  0.0000E+00  0.9400E+02
    -35.270  0.0000E+00  0.9400E+02
    -34.827  0.0000E+00  0.9400E+02
    -34.385  0.0000E+00  0.9400E+02
    -33.943  0.0000E+00  0.9400E+02
    -33.500  0.0000E+00  0.9400E+02
    -33.058  0.0000E+00  0.9400E+02
    -32.615  0.0000E+00  0.9400E+02
    -32.173  0.0000E+00  0.9400E+02
    -31.731  0.0000E+00  0.9400E+02
    -31.288  0.0000E+00  0.9400E+02
    -30.846  0.2858E+00  0.9413E+02
    -30.404  0.1951E+03  0.1805E+03
    -29.961  0.1413E+03  0.2560E+03
    -29.519  0.0000E+00  0.2560E+03
    -29.077  0.0000E+00  0.2560E+03
    -28.634  0.0000E+00  0.2560E+03
    -28.192  0.0000E+00  0.2560E+03
    -27.749  0.0000E+00  0.2560E+03
    -27.307  0.0000E+00  0.2560E+03
    -26.865  0.0000E+00  0.2560E+03
    -26.422  0.0000E+00  0.2560E+03
    -25.980  0.0000E+00  0.2560E+03
    -25.538  0.0000E+00  0.2560E+03
    -25.095  0.0000E+00  0.2560E+03
    -24.653  0.0000E+00  0.2560E+03
    -24.211  0.0000E+00  0.2560E+03
    -23.768  0.0000E+00  0.2560E+03
    -23.326  0.0000E+00  0.2560E+03
    -22.883  0.0000E+00  0.2560E+03
    -22.441  0.0000E+00  0.2560E+03
    -21.999  0.0000E+00  0.2560E+03
    -21.556  0.0000E+00  0.2560E+03
    -21.114  0.0000E+00  0.2560E+03
    -20.672  0.0000E+00  0.2560E+03
    -20.229  0.0000E+00  0.2560E+03
    -19.787  0.0000E+00  0.2560E+03
    -19.345  0.0000E+00  0.2560E+03
    -18.902  0.4748E-14  0.2560E+03
    -18.460  0.1082E+03  0.3038E+03
    -18.017  0.1085E+03  0.3520E+03
    -17.575  0.0000E+00  0.3520E+03
    -17.133  0.0000E+00  0.3520E+03
    -16.690  0.0000E+00  0.3520E+03
    -16.248  0.0000E+00  0.3520E+03
    -15.806  0.0000E+00  0.3520E+03
    -15.363  0.1318E-06  0.3520E+03
    -14.921  0.1167E+02  0.3572E+03
    -14.478  0.2742E+02  0.3704E+03
    -14.036  0.7602E+02  0.4060E+03
    -13.594  0.1230E+03  0.4672E+03
    -13.151  0.1560E+02  0.4800E+03
    -12.709  0.0000E+00  0.4800E+03
    -12.267  0.0000E+00  0.4800E+03
    -11.824  0.0000E+00  0.4800E+03
    -11.382  0.0000E+00  0.4800E+03
    -10.940  0.0000E+00  0.4800E+03
    -10.497  0.0000E+00  0.4800E+03
    -10.055  0.0000E+00  0.4800E+03
     -9.612  0.0000E+00  0.4800E+03
     -9.170  0.0000E+00  0.4800E+03
     -8.728  0.0000E+00  0.4800E+03
     -8.285  0.0000E+00  0.4800E+03
     -7.843  0.0000E+00  0.4800E+03
     -7.401  0.0000E+00  0.4800E+03
     -6.958  0.0000E+00  0.4800E+03
     -6.516  0.0000E+00  0.4800E+03
     -6.074  0.0000E+00  0.4800E+03
     -5.631  0.0000E+00  0.4800E+03
     -5.189  0.0000E+00  0.4800E+03
     -4.746  0.0000E+00  0.4800E+03
     -4.304  0.0000E+00  0.4800E+03
     -3.862  0.0000E+00  0.4800E+03
     -3.419  0.0000E+00  0.4800E+03
     -2.977  0.0000E+00  0.4800E+03
     -2.535  0.2636E+00  0.4801E+03
     -2.092  0.1086E+02  0.4850E+03
     -1.650  0.4615E+02  0.5059E+03
     -1.208  0.1060E+03  0.5577E+03
     -0.765  0.1391E+03  0.6229E+03
     -0.323  0.6585E+02  0.6576E+03
      0.120  0.6311E+02  0.6888E+03
      0.562  0.7643E+02  0.7259E+03
      1.004  0.9047E+02  0.7709E+03
      1.447  0.8937E+02  0.8137E+03
      1.889  0.7930E+02  0.8532E+03
      2.331  0.1868E+02  0.8640E+03
      2.774  0.0000E+00  0.8640E+03
      3.216  0.0000E+00  0.8640E+03
      3.658  0.0000E+00  0.8640E+03
      4.101  0.1351E-13  0.8640E+03
      4.543  0.9060E+01  0.8680E+03
      4.986  0.3174E+02  0.8820E+03
      5.428  0.7977E+02  0.9184E+03
      5.870  0.1469E+03  0.9902E+03
      6.313  0.5122E+02  0.1018E+04
      6.755  0.3080E+02  0.1032E+04
      7.197  0.6663E+01  0.1036E+04
      7.640  0.3057E+02  0.1050E+04
      8.082  0.7703E+02  0.1086E+04
      8.524  0.7350E+02  0.1123E+04
      8.967  0.4296E+02  0.1146E+04
      9.409  0.4298E+01  0.1148E+04
      9.852  0.7845E+01  0.1152E+04
     10.294  0.1294E+02  0.1158E+04
     10.736  0.1093E+02  0.1163E+04
     11.179  0.1780E+02  0.1172E+04
     11.621  0.2100E+02  0.1182E+04
     12.063  0.3002E+02  0.1197E+04
     12.506  0.1263E+02  0.1203E+04
     12.948  0.1839E+02  0.1213E+04
     13.390  0.2142E+02  0.1223E+04
     13.833  0.2105E+02  0.1234E+04
     14.275  0.2979E+02  0.1248E+04
     14.718  0.3172E+02  0.1263E+04
     15.160  0.4225E+02  0.1284E+04
     15.602  0.2117E+02  0.1295E+04
     16.045  0.3547E+02  0.1312E+04
     16.487  0.4819E+02  0.1334E+04
     16.929  0.4144E+02  0.1354E+04
     17.372  0.4147E+02  0.1374E+04
     17.814  0.3622E+02  0.1391E+04
     18.257  0.3122E+02  0.1406E+04
     18.699  0.2677E+02  0.1420E+04
     19.141  0.3751E+02  0.1438E+04
     19.584  0.3442E+02  0.1455E+04
     20.026  0.3172E+02  0.1470E+04
     20.468  0.3852E+02  0.1489E+04
     20.911  0.5452E+02  0.1516E+04
     21.353  0.4652E+02  0.1539E+04
     21.795  0.4724E+02  0.1562E+04
     22.238  0.5595E+02  0.1589E+04
     22.680  0.4210E+02  0.1611E+04
     23.123  0.4325E+02  0.1632E+04
     23.565  0.4196E+02  0.1653E+04
     24.007  0.4250E+02  0.1674E+04
     24.450  0.5553E+02  0.1700E+04
     24.892  0.4945E+02  0.1724E+04
     25.334  0.5206E+02  0.1750E+04
     25.777  0.3953E+02  0.1769E+04
     26.219  0.3988E+02  0.1790E+04
     26.661  0.4451E+02  0.1811E+04
     27.104  0.4385E+02  0.1834E+04
     27.546  0.5425E+02  0.1860E+04
     27.989  0.4555E+02  0.1883E+04
     28.431  0.4742E+02  0.1906E+04
     28.873  0.5157E+02  0.1932E+04
     29.316  0.4425E+02  0.1954E+04
     29.758  0.3984E+02  0.1974E+04
     30.200  0.4318E+02  0.1995E+04
     30.643  0.4042E+02  0.2015E+04
     31.085  0.4775E+02  0.2038E+04
     31.527  0.4583E+02  0.2060E+04
     31.970  0.4584E+02  0.2083E+04
     32.412  0.4214E+02  0.2103E+04
     32.855  0.4731E+02  0.2126E+04
     33.297  0.4613E+02  0.2148E+04
     33.739  0.5256E+02  0.2174E+04
     34.182  0.4730E+02  0.2198E+04
     34.624  0.5824E+02  0.2225E+04
     35.066  0.5536E+02  0.2252E+04
     35.509  0.5460E+02  0.2280E+04
     35.951  0.5638E+02  0.2306E+04
     36.393  0.5913E+02  0.2336E+04
     36.836  0.5384E+02  0.2362E+04
     37.278  0.5562E+02  0.2391E+04
     37.721  0.5977E+02  0.2421E+04
     38.163  0.6503E+02  0.2452E+04
     38.605  0.5536E+02  0.2481E+04
     39.048  0.5698E+02  0.2508E+04
     39.490  0.6391E+02  0.2538E+04
     39.932  0.5755E+02  0.2567E+04
     40.375  0.6088E+02  0.2596E+04
     40.817  0.5959E+02  0.2626E+04
     41.259  0.5339E+02  0.2653E+04
     41.702  0.6026E+02  0.2682E+04
     42.144  0.5974E+02  0.2711E+04
     42.587  0.6538E+02  0.2744E+04
     43.029  0.7203E+02  0.2779E+04
     43.471  0.6747E+02  0.2812E+04
     43.914  0.6491E+02  0.2844E+04
     44.356  0.6369E+02  0.2875E+04
     44.798  0.6318E+02  0.2906E+04
     45.241  0.5578E+02  0.2935E+04
     45.683  0.6680E+02  0.2968E+04
     46.125  0.6322E+02  0.3000E+04
     46.568  0.7192E+02  0.3034E+04
     47.010  0.6391E+02  0.3066E+04
     47.453  0.6968E+02  0.3099E+04
     47.895  0.7118E+02  0.3133E+04
     48.337  0.6051E+02  0.3162E+04
     48.780  0.5943E+02  0.3192E+04
     49.222  0.6045E+02  0.3221E+04
     49.664  0.5514E+02  0.3248E+04
     50.107  0.6299E+02  0.3280E+04
     50.549  0.5958E+02  0.3309E+04
     50.992  0.6659E+02  0.3341E+04
     51.434  0.6337E+02  0.3372E+04
     51.876  0.6692E+02  0.3405E+04
     52.319  0.5738E+02  0.3434E+04
     52.761  0.6096E+02  0.3464E+04
     53.203  0.6331E+02  0.3496E+04
     53.646  0.6360E+02  0.3527E+04
     54.088  0.6445E+02  0.3560E+04
     54.530  0.5996E+02  0.3588E+04
     54.973  0.5520E+02  0.3617E+04
     55.415  0.6356E+02  0.3648E+04
     55.858  0.5632E+02  0.3676E+04
     56.300  0.6410E+02  0.3707E+04
     56.742  0.6809E+02  0.3740E+04
     57.185  0.6939E+02  0.3774E+04
     57.627  0.6565E+02  0.3805E+04
     58.069  0.6618E+02  0.3838E+04
     58.512  0.6783E+02  0.3871E+04
     58.954  0.7383E+02  0.3906E+04
     59.396  0.7307E+02  0.3942E+04
     59.839  0.6701E+02  0.3974E+04
     60.281  0.4748E+02  0.3997E+04
     60.724  0.2924E+01  0.4000E+04
     61.166  0.0000E+00  0.4000E+04
     61.608  0.0000E+00  0.4000E+04
     62.051  0.0000E+00  0.4000E+04
     62.493  0.0000E+00  0.4000E+04
     62.935  0.0000E+00  0.4000E+04
     63.378  0.0000E+00  0.4000E+04
     63.820  0.0000E+00  0.4000E+04
     64.262  0.0000E+00  0.4000E+04
     64.705  0.0000E+00  0.4000E+04
     65.147  0.0000E+00  0.4000E+04
     65.590  0.0000E+00  0.4000E+04
     66.032  0.0000E+00  0.4000E+04
     66.474  0.0000E+00  0.4000E+04
