  108  108    1    1
  0.1253601E+02  0.1216996E-08  0.1234871E-08  0.9026082E-09  0.5000000E-15
  1.000000000000000E-004
  CAR 
 unknown system                          
    865      8   2000
 
  0.0000000E+00  0.0000000E+00  0.0000000E+00  0.8333333E-01
    1      -60.202742   1.000000
    2      -54.448772   1.000000
    3      -54.438406   1.000000
    4      -54.421016   1.000000
    5      -54.356644   1.000000
    6      -54.308249   1.000000
    7      -54.276834   1.000000
    8      -54.276582   1.000000
    9      -54.272414   1.000000
   10      -54.268770   1.000000
   11      -54.267821   1.000000
   12      -54.240180   1.000000
   13      -54.237495   1.000000
   14      -54.113330   1.000000
   15      -54.086780   1.000000
   16      -54.075034   1.000000
   17      -54.072832   1.000000
   18      -54.071112   1.000000
   19      -54.068960   1.000000
   20      -54.065143   1.000000
   21      -54.063115   1.000000
   22      -54.060336   1.000000
   23      -54.054361   1.000000
   24      -54.052422   1.000000
   25      -54.051120   1.000000
   26      -54.043462   1.000000
   27      -54.037503   1.000000
   28      -54.024792   1.000000
   29      -46.627613   1.000000
   30      -46.597505   1.000000
   31      -46.597184   1.000000
   32      -46.593615   1.000000
   33      -46.590613   1.000000
   34      -46.579933   1.000000
   35      -46.573847   1.000000
   36      -46.566715   1.000000
   37      -46.197248   1.000000
   38      -46.191179   1.000000
   39      -46.179297   1.000000
   40      -46.172519   1.000000
   41      -46.171152   1.000000
   42      -46.166593   1.000000
   43      -46.165505   1.000000
   44      -46.163091   1.000000
   45      -36.493569   1.000000
   46      -36.364817   1.000000
   47      -36.174111   1.000000
   48      -30.801203   1.000000
   49      -30.757840   1.000000
   50      -30.746651   1.000000
   51      -30.730830   1.000000
   52      -30.726473   1.000000
   53      -30.713401   1.000000
   54      -30.708055   1.000000
   55      -30.700398   1.000000
   56      -30.695539   1.000000
   57      -30.679433   1.000000
   58      -30.678742   1.000000
   59      -30.670280   1.000000
   60      -30.663356   1.000000
   61      -30.644746   1.000000
   62      -30.608556   1.000000
   63      -30.605146   1.000000
   64      -30.597855   1.000000
   65      -30.582434   1.000000
   66      -30.569408   1.000000
   67      -30.566244   1.000000
   68      -30.562367   1.000000
   69      -30.551650   1.000000
   70      -30.549172   1.000000
   71      -30.544608   1.000000
   72      -30.541954   1.000000
   73      -30.533224   1.000000
   74      -30.528672   1.000000
   75      -30.524451   1.000000
   76      -30.524178   1.000000
   77      -30.519660   1.000000
   78      -30.515204   1.000000
   79      -30.512095   1.000000
   80      -30.509009   1.000000
   81      -30.503361   1.000000
   82      -30.495054   1.000000
   83      -30.481021   1.000000
   84      -30.466652   1.000000
   85      -30.462820   1.000000
   86      -30.419188   1.000000
   87      -30.415010   1.000000
   88      -30.414800   1.000000
   89      -30.402345   1.000000
   90      -30.397504   1.000000
   91      -30.392672   1.000000
   92      -30.380637   1.000000
   93      -30.378816   1.000000
   94      -30.370226   1.000000
   95      -30.365040   1.000000
   96      -30.364307   1.000000
   97      -30.360881   1.000000
   98      -30.353141   1.000000
   99      -30.352343   1.000000
  100      -30.344202   1.000000
  101      -30.340733   1.000000
  102      -30.338142   1.000000
  103      -30.334741   1.000000
  104      -30.331869   1.000000
  105      -30.330875   1.000000
  106      -30.327545   1.000000
  107      -30.324813   1.000000
  108      -30.323374   1.000000
  109      -30.319923   1.000000
  110      -30.319614   1.000000
  111      -30.306531   1.000000
  112      -30.301104   1.000000
  113      -30.297846   1.000000
  114      -30.293548   1.000000
  115      -30.289253   1.000000
  116      -30.286407   1.000000
  117      -30.276310   1.000000
  118      -30.274419   1.000000
  119      -30.272524   1.000000
  120      -30.267982   1.000000
  121      -30.266049   1.000000
  122      -30.256341   1.000000
  123      -30.253797   1.000000
  124      -30.252932   1.000000
  125      -30.207637   1.000000
  126      -30.181146   1.000000
  127      -30.171757   1.000000
  128      -30.168413   1.000000
  129      -18.619012   1.000000
  130      -18.618077   1.000000
  131      -18.595650   1.000000
  132      -18.593643   1.000000
  133      -18.590493   1.000000
  134      -18.590201   1.000000
  135      -18.586595   1.000000
  136      -18.584970   1.000000
  137      -18.581897   1.000000
  138      -18.578662   1.000000
  139      -18.574048   1.000000
  140      -18.567904   1.000000
  141      -18.565881   1.000000
  142      -18.562191   1.000000
  143      -18.561953   1.000000
  144      -18.560766   1.000000
  145      -18.558796   1.000000
  146      -18.555642   1.000000
  147      -18.555329   1.000000
  148      -18.554738   1.000000
  149      -18.553250   1.000000
  150      -18.541876   1.000000
  151      -18.537048   1.000000
  152      -18.528784   1.000000
  153      -18.224762   1.000000
  154      -18.214941   1.000000
  155      -18.208461   1.000000
  156      -18.203640   1.000000
  157      -18.199801   1.000000
  158      -18.198371   1.000000
  159      -18.195715   1.000000
  160      -18.192838   1.000000
  161      -18.192226   1.000000
  162      -18.191369   1.000000
  163      -18.186955   1.000000
  164      -18.186100   1.000000
  165      -18.185566   1.000000
  166      -18.182558   1.000000
  167      -18.182135   1.000000
  168      -18.179081   1.000000
  169      -18.178697   1.000000
  170      -18.177687   1.000000
  171      -18.173842   1.000000
  172      -18.170949   1.000000
  173      -18.167069   1.000000
  174      -18.165960   1.000000
  175      -18.161128   1.000000
  176      -18.157882   1.000000
  177      -15.187811   1.000000
  178      -14.942164   1.000000
  179      -14.927487   1.000000
  180      -14.872539   1.000000
  181      -14.721394   1.000000
  182      -14.707894   1.000000
  183      -14.676303   1.000000
  184      -14.650410   1.000000
  185      -14.575785   1.000000
  186      -14.512691   1.000000
  187      -14.389784   1.000000
  188      -14.383484   1.000000
  189      -14.357100   1.000000
  190      -14.296898   1.000000
  191      -14.290383   1.000000
  192      -14.278633   1.000000
  193      -14.216303   1.000000
  194      -14.206243   1.000000
  195      -14.165866   1.000000
  196      -14.156738   1.000000
  197      -14.139147   1.000000
  198      -14.109678   1.000000
  199      -14.082368   1.000000
  200      -14.064888   1.000000
  201      -14.063539   1.000000
  202      -14.053898   1.000000
  203      -14.037983   1.000000
  204      -14.022931   1.000000
  205      -14.020509   1.000000
  206      -14.016448   1.000000
  207      -14.011376   1.000000
  208      -14.004701   1.000000
  209      -13.984517   1.000000
  210      -13.966530   1.000000
  211      -13.937223   1.000000
  212      -13.926746   1.000000
  213      -13.903855   1.000000
  214      -13.886929   1.000000
  215      -13.867898   1.000000
  216      -13.860718   1.000000
  217      -13.850032   1.000000
  218      -13.815921   1.000000
  219      -13.811172   1.000000
  220      -13.803684   1.000000
  221      -13.792412   1.000000
  222      -13.786995   1.000000
  223      -13.773136   1.000000
  224      -13.744585   1.000000
  225      -13.735112   1.000000
  226      -13.713216   1.000000
  227      -13.704616   1.000000
  228      -13.679304   1.000000
  229      -13.670052   1.000000
  230      -13.667489   1.000000
  231      -13.664133   1.000000
  232      -13.619150   1.000000
  233      -13.611024   1.000000
  234      -13.593882   1.000000
  235      -13.566178   1.000000
  236      -13.556713   1.000000
  237      -13.551079   1.000000
  238      -13.532672   1.000000
  239      -13.513772   1.000000
  240      -13.477195   1.000000
  241       -2.551818   1.000000
  242       -2.144955   1.000000
  243       -2.111360   1.000000
  244       -2.024433   1.000000
  245       -1.974798   1.000000
  246       -1.884559   1.000000
  247       -1.837324   1.000000
  248       -1.793880   1.000000
  249       -1.777369   1.000000
  250       -1.764039   1.000000
  251       -1.703189   1.000000
  252       -1.677435   1.000000
  253       -1.672626   1.000000
  254       -1.638531   1.000000
  255       -1.622711   1.000000
  256       -1.607282   1.000000
  257       -1.599115   1.000000
  258       -1.539178   1.000000
  259       -1.517707   1.000000
  260       -1.513180   1.000000
  261       -1.495569   1.000000
  262       -1.486234   1.000000
  263       -1.482373   1.000000
  264       -1.459409   1.000000
  265       -1.448511   1.000000
  266       -1.389432   1.000000
  267       -1.379075   1.000000
  268       -1.363567   1.000000
  269       -1.355580   1.000000
  270       -1.351288   1.000000
  271       -1.345778   1.000000
  272       -1.328638   1.000000
  273       -1.327882   1.000000
  274       -1.313950   1.000000
  275       -1.300065   1.000000
  276       -1.295889   1.000000
  277       -1.247044   1.000000
  278       -1.222114   1.000000
  279       -1.211334   1.000000
  280       -1.182418   1.000000
  281       -1.168708   1.000000
  282       -1.159241   1.000000
  283       -1.156103   1.000000
  284       -1.140853   1.000000
  285       -1.118175   1.000000
  286       -1.113003   1.000000
  287       -1.090004   1.000000
  288       -1.078828   1.000000
  289       -1.050857   1.000000
  290       -1.041108   1.000000
  291       -1.028025   1.000000
  292       -0.987614   1.000000
  293       -0.979019   1.000000
  294       -0.961778   1.000000
  295       -0.956144   1.000000
  296       -0.945599   1.000000
  297       -0.926241   1.000000
  298       -0.906642   1.000000
  299       -0.895247   1.000000
  300       -0.886993   1.000000
  301       -0.875462   1.000000
  302       -0.863470   1.000000
  303       -0.846550   1.000000
  304       -0.832477   1.000000
  305       -0.814022   1.000000
  306       -0.810635   1.000000
  307       -0.800896   1.000000
  308       -0.797552   1.000000
  309       -0.792536   1.000000
  310       -0.778596   1.000000
  311       -0.750695   1.000000
  312       -0.730419   1.000000
  313       -0.711903   1.000000
  314       -0.682219   1.000000
  315       -0.672351   1.000000
  316       -0.633150   1.000000
  317       -0.612714   1.000000
  318       -0.593548   1.000000
  319       -0.573595   1.000000
  320       -0.549342   1.000000
  321       -0.538742   1.000000
  322       -0.520395   1.000000
  323       -0.506061   1.000000
  324       -0.475974   1.000000
  325       -0.446394   1.000000
  326       -0.434968   1.000000
  327       -0.425781   1.000000
  328       -0.412936   1.000000
  329       -0.348167   1.000000
  330       -0.343637   1.000000
  331       -0.287232   1.000000
  332       -0.257287   1.000000
  333       -0.210272   1.000000
  334       -0.201742   1.000000
  335       -0.188309   1.000000
  336       -0.135379   1.000000
  337       -0.089800   1.000000
  338       -0.021255   1.000000
  339       -0.008278   1.000000
  340        0.004392   1.000000
  341        0.015978   1.000000
  342        0.039952   1.000000
  343        0.050434   1.000000
  344        0.093769   1.000000
  345        0.125324   1.000000
  346        0.143466   1.000000
  347        0.162718   1.000000
  348        0.185325   1.000000
  349        0.201487   1.000000
  350        0.215313   1.000000
  351        0.238667   1.000000
  352        0.260968   1.000000
  353        0.292038   1.000000
  354        0.325864   1.000000
  355        0.377735   1.000000
  356        0.390309   1.000000
  357        0.394649   1.000000
  358        0.431742   1.000000
  359        0.440295   1.000000
  360        0.455553   1.000000
  361        0.467805   1.000000
  362        0.483931   1.000000
  363        0.505433   1.000000
  364        0.518608   1.000000
  365        0.532897   1.000000
  366        0.612298   1.000000
  367        0.630794   1.000000
  368        0.640483   1.000000
  369        0.670113   1.000000
  370        0.678357   1.000000
  371        0.687364   1.000000
  372        0.712491   1.000000
  373        0.734965   1.000000
  374        0.739246   1.000000
  375        0.766147   1.000000
  376        0.848869   1.000000
  377        0.868926   1.000000
  378        0.891428   1.000000
  379        0.910036   1.000000
  380        0.916524   1.000000
  381        0.931614   1.000000
  382        0.953118   1.000000
  383        0.966276   1.000000
  384        0.971046   1.000000
  385        0.999825   1.000000
  386        1.016958   1.000000
  387        1.027433   1.000000
  388        1.033660   1.000000
  389        1.057736   1.000000
  390        1.060046   1.000000
  391        1.065738   1.000000
  392        1.113939   1.000000
  393        1.156128   1.000000
  394        1.174383   1.000000
  395        1.201266   1.000000
  396        1.217241   1.000000
  397        1.250178   1.000000
  398        1.262499   1.000000
  399        1.280519   1.000000
  400        1.284144   1.000000
  401        1.312910   1.000000
  402        1.345531   1.000000
  403        1.350697   1.000000
  404        1.365356   1.000000
  405        1.375466   1.000000
  406        1.399892   1.000000
  407        1.410975   1.000000
  408        1.436961   1.000000
  409        1.445694   1.000000
  410        1.468824   1.000000
  411        1.558539   1.000000
  412        1.568509   1.000000
  413        1.574643   1.000000
  414        1.594256   1.000000
  415        1.600784   1.000000
  416        1.605266   1.000000
  417        1.704439   1.000000
  418        1.730356   1.000000
  419        1.732917   1.000000
  420        1.741986   1.000000
  421        1.749548   1.000000
  422        1.792720   1.000000
  423        1.831298   1.000000
  424        1.845243   1.000000
  425        1.876772   1.000000
  426        1.900164   1.000000
  427        1.922235   1.000000
  428        1.935347   1.000000
  429        1.964960   1.000000
  430        1.994734   1.000000
  431        2.015399   1.000000
  432        2.038041   1.000000
  433        4.372032   0.371172
  434        4.380608   0.283895
  435        4.638905   0.000000
  436        4.677238   0.000000
  437        4.705387   0.000000
  438        4.739238   0.000000
  439        4.845631   0.000000
  440        4.959600   0.000000
  441        4.993010   0.000000
  442        5.070982   0.000000
  443        5.090834   0.000000
  444        5.107950   0.000000
  445        5.134209   0.000000
  446        5.176058   0.000000
  447        5.210590   0.000000
  448        5.224375   0.000000
  449        5.234876   0.000000
  450        5.250879   0.000000
  451        5.262621   0.000000
  452        5.276573   0.000000
  453        5.296669   0.000000
  454        5.321645   0.000000
  455        5.342376   0.000000
  456        5.374755   0.000000
  457        5.380157   0.000000
  458        5.384689   0.000000
  459        5.394195   0.000000
  460        5.424060   0.000000
  461        5.442072   0.000000
  462        5.458489   0.000000
  463        5.478936   0.000000
  464        5.504642   0.000000
  465        5.508870   0.000000
  466        5.523157   0.000000
  467        5.530617   0.000000
  468        5.539823   0.000000
  469        5.545421   0.000000
  470        5.552885   0.000000
  471        5.554890   0.000000
  472        5.566597   0.000000
  473        5.575471   0.000000
  474        5.580142   0.000000
  475        5.601028   0.000000
  476        5.611126   0.000000
  477        5.637722   0.000000
  478        5.668506   0.000000
  479        5.675069   0.000000
  480        5.679925   0.000000
  481        5.685556   0.000000
  482        5.706511   0.000000
  483        5.716012   0.000000
  484        5.727637   0.000000
  485        5.737351   0.000000
  486        5.753932   0.000000
  487        5.761188   0.000000
  488        5.765595   0.000000
  489        5.784245   0.000000
  490        5.793622   0.000000
  491        5.808408   0.000000
  492        5.810816   0.000000
  493        5.823436   0.000000
  494        5.835702   0.000000
  495        5.869729   0.000000
  496        5.881932   0.000000
  497        5.901007   0.000000
  498        5.914207   0.000000
  499        5.924662   0.000000
  500        5.932240   0.000000
  501        5.947845   0.000000
  502        6.072883   0.000000
  503        6.091471   0.000000
  504        6.104750   0.000000
  505        6.152997   0.000000
  506        6.200919   0.000000
  507        6.215129   0.000000
  508        6.235787   0.000000
  509        6.252586   0.000000
  510        6.387075   0.000000
  511        6.479826   0.000000
  512        6.535701   0.000000
  513        6.569888   0.000000
  514        6.591715   0.000000
  515        6.661326   0.000000
  516        6.724949   0.000000
  517        6.823400   0.000000
  518        6.940306   0.000000
  519        7.263407   0.000000
  520        7.369528   0.000000
  521        7.374715   0.000000
  522        7.407447   0.000000
  523        7.467253   0.000000
  524        7.536795   0.000000
  525        7.570667   0.000000
  526        7.646424   0.000000
  527        7.751236   0.000000
  528        7.782932   0.000000
  529        7.788055   0.000000
  530        7.801097   0.000000
  531        7.848278   0.000000
  532        7.860420   0.000000
  533        7.864477   0.000000
  534        7.897131   0.000000
  535        7.911759   0.000000
  536        7.939592   0.000000
  537        7.958239   0.000000
  538        7.978761   0.000000
  539        7.984485   0.000000
  540        7.990954   0.000000
  541        8.012980   0.000000
  542        8.019299   0.000000
  543        8.044947   0.000000
  544        8.052353   0.000000
  545        8.079929   0.000000
  546        8.109287   0.000000
  547        8.140949   0.000000
  548        8.154813   0.000000
  549        8.176053   0.000000
  550        8.187041   0.000000
  551        8.216917   0.000000
  552        8.227828   0.000000
  553        8.268665   0.000000
  554        8.310714   0.000000
  555        8.344902   0.000000
  556        8.372273   0.000000
  557        8.403833   0.000000
  558        8.423380   0.000000
  559        8.471540   0.000000
  560        8.503182   0.000000
  561        8.524808   0.000000
  562        8.534976   0.000000
  563        8.567057   0.000000
  564        8.576655   0.000000
  565        8.588791   0.000000
  566        8.592986   0.000000
  567        8.641966   0.000000
  568        8.668848   0.000000
  569        8.708524   0.000000
  570        8.740098   0.000000
  571        8.782382   0.000000
  572        8.814166   0.000000
  573        8.833202   0.000000
  574        9.551028   0.000000
  575        9.701392   0.000000
  576        9.713759   0.000000
  577        9.826838   0.000000
  578       10.659680   0.000000
  579       10.665872   0.000000
  580       10.702885   0.000000
  581       10.760209   0.000000
  582       10.904221   0.000000
  583       10.933010   0.000000
  584       10.984257   0.000000
  585       10.999466   0.000000
  586       11.077840   0.000000
  587       11.091127   0.000000
  588       11.300961   0.000000
  589       11.408524   0.000000
  590       11.594326   0.000000
  591       11.662279   0.000000
  592       11.711701   0.000000
  593       11.758665   0.000000
  594       11.815615   0.000000
  595       11.949165   0.000000
  596       11.952965   0.000000
  597       12.020838   0.000000
  598       12.115812   0.000000
  599       12.232045   0.000000
  600       12.242716   0.000000
  601       12.335210   0.000000
  602       12.408253   0.000000
  603       12.579613   0.000000
  604       12.608307   0.000000
  605       12.722948   0.000000
  606       12.730202   0.000000
  607       12.746590   0.000000
  608       12.797580   0.000000
  609       12.813207   0.000000
  610       12.868318   0.000000
  611       13.226241   0.000000
  612       13.256596   0.000000
  613       13.410567   0.000000
  614       13.444291   0.000000
  615       13.550180   0.000000
  616       13.559696   0.000000
  617       13.671638   0.000000
  618       13.730648   0.000000
  619       13.881512   0.000000
  620       13.921523   0.000000
  621       13.952041   0.000000
  622       13.957348   0.000000
  623       13.990395   0.000000
  624       14.192461   0.000000
  625       14.317285   0.000000
  626       14.339992   0.000000
  627       14.456701   0.000000
  628       14.481821   0.000000
  629       14.723786   0.000000
  630       14.727732   0.000000
  631       14.766102   0.000000
  632       14.785291   0.000000
  633       14.817005   0.000000
  634       14.900341   0.000000
  635       14.987786   0.000000
  636       15.003151   0.000000
  637       15.028246   0.000000
  638       15.087417   0.000000
  639       15.145791   0.000000
  640       15.159178   0.000000
  641       15.197421   0.000000
  642       15.222275   0.000000
  643       15.250308   0.000000
  644       15.355621   0.000000
  645       15.387383   0.000000
  646       15.392245   0.000000
  647       15.508699   0.000000
  648       15.649054   0.000000
  649       15.699142   0.000000
  650       15.790071   0.000000
  651       15.832357   0.000000
  652       15.856531   0.000000
  653       15.918315   0.000000
  654       15.945116   0.000000
  655       15.967793   0.000000
  656       15.984657   0.000000
  657       16.059692   0.000000
  658       16.133240   0.000000
  659       16.202439   0.000000
  660       16.205768   0.000000
  661       16.220158   0.000000
  662       16.237743   0.000000
  663       16.244428   0.000000
  664       16.250597   0.000000
  665       16.320861   0.000000
  666       16.402235   0.000000
  667       16.412186   0.000000
  668       16.430339   0.000000
  669       16.438438   0.000000
  670       16.516385   0.000000
  671       16.641392   0.000000
  672       16.679943   0.000000
  673       16.700291   0.000000
  674       16.780752   0.000000
  675       16.792907   0.000000
  676       16.804902   0.000000
  677       16.875464   0.000000
  678       16.904513   0.000000
  679       16.926033   0.000000
  680       17.035426   0.000000
  681       17.086925   0.000000
  682       17.098632   0.000000
  683       17.153760   0.000000
  684       17.159118   0.000000
  685       17.160655   0.000000
  686       17.288858   0.000000
  687       17.330807   0.000000
  688       17.479321   0.000000
  689       17.568685   0.000000
  690       17.589235   0.000000
  691       17.606657   0.000000
  692       17.688163   0.000000
  693       17.775746   0.000000
  694       17.926885   0.000000
  695       17.965480   0.000000
  696       18.101769   0.000000
  697       18.112016   0.000000
  698       18.149950   0.000000
  699       18.158746   0.000000
  700       18.193571   0.000000
  701       18.227499   0.000000
  702       18.246672   0.000000
  703       18.275263   0.000000
  704       18.298429   0.000000
  705       18.379947   0.000000
  706       18.409719   0.000000
  707       18.415255   0.000000
  708       18.452785   0.000000
  709       18.460448   0.000000
  710       18.559486   0.000000
  711       18.689191   0.000000
  712       18.696974   0.000000
  713       18.727614   0.000000
  714       18.764440   0.000000
  715       18.778499   0.000000
  716       18.812377   0.000000
  717       18.821952   0.000000
  718       18.877147   0.000000
  719       18.966093   0.000000
  720       18.993678   0.000000
  721       19.154330   0.000000
  722       19.222139   0.000000
  723       19.285478   0.000000
  724       19.345947   0.000000
  725       19.373561   0.000000
  726       19.480030   0.000000
  727       19.531320   0.000000
  728       19.570610   0.000000
  729       19.681866   0.000000
  730       19.712217   0.000000
  731       19.791685   0.000000
  732       19.850415   0.000000
  733       19.888691   0.000000
  734       19.905624   0.000000
  735       19.930839   0.000000
  736       20.048004   0.000000
  737       20.078317   0.000000
  738       20.091532   0.000000
  739       20.170431   0.000000
  740       20.209996   0.000000
  741       20.276159   0.000000
  742       20.308184   0.000000
  743       20.381130   0.000000
  744       20.391510   0.000000
  745       20.450711   0.000000
  746       20.482113   0.000000
  747       20.498283   0.000000
  748       20.586523   0.000000
  749       20.599281   0.000000
  750       20.618879   0.000000
  751       20.628630   0.000000
  752       20.691826   0.000000
  753       20.760163   0.000000
  754       20.766763   0.000000
  755       20.810049   0.000000
  756       20.824711   0.000000
  757       20.840652   0.000000
  758       20.885839   0.000000
  759       20.983013   0.000000
  760       21.013080   0.000000
  761       21.027936   0.000000
  762       21.040890   0.000000
  763       21.062164   0.000000
  764       21.070145   0.000000
  765       21.076053   0.000000
  766       21.101504   0.000000
  767       21.157680   0.000000
  768       21.179010   0.000000
  769       21.207209   0.000000
  770       21.227820   0.000000
  771       21.369411   0.000000
  772       21.373390   0.000000
  773       21.380900   0.000000
  774       21.448770   0.000000
  775       21.469093   0.000000
  776       21.481473   0.000000
  777       21.488319   0.000000
  778       21.576773   0.000000
  779       21.602899   0.000000
  780       21.645673   0.000000
  781       21.735864   0.000000
  782       21.741893   0.000000
  783       21.807181   0.000000
  784       21.967432   0.000000
  785       22.010018   0.000000
  786       22.017435   0.000000
  787       22.045232   0.000000
  788       22.077131   0.000000
  789       22.139684   0.000000
  790       22.176394   0.000000
  791       22.222604   0.000000
  792       22.247049   0.000000
  793       22.269830   0.000000
  794       22.299651   0.000000
  795       22.307036   0.000000
  796       22.326707   0.000000
  797       22.352519   0.000000
  798       22.372535   0.000000
  799       22.377971   0.000000
  800       22.430819   0.000000
  801       22.486356   0.000000
  802       22.496105   0.000000
  803       22.514862   0.000000
  804       22.518946   0.000000
  805       22.640777   0.000000
  806       22.699030   0.000000
  807       22.758677   0.000000
  808       22.763627   0.000000
  809       22.813370   0.000000
  810       22.828874   0.000000
  811       22.844275   0.000000
  812       22.864271   0.000000
  813       22.898177   0.000000
  814       22.907509   0.000000
  815       22.970186   0.000000
  816       22.991279   0.000000
  817       23.120589   0.000000
  818       23.173535   0.000000
  819       23.222337   0.000000
  820       23.234776   0.000000
  821       23.263715   0.000000
  822       23.362046   0.000000
  823       23.378750   0.000000
  824       23.429181   0.000000
  825       23.436114   0.000000
  826       23.454365   0.000000
  827       23.509478   0.000000
  828       23.571744   0.000000
  829       23.588305   0.000000
  830       23.716986   0.000000
  831       23.798870   0.000000
  832       23.812238   0.000000
  833       23.826239   0.000000
  834       23.923145   0.000000
  835       23.939388   0.000000
  836       24.021401   0.000000
  837       24.067599   0.000000
  838       24.103457   0.000000
  839       24.132509   0.000000
  840       24.152122   0.000000
  841       24.169655   0.000000
  842       24.172275   0.000000
  843       24.208647   0.000000
  844       24.209356   0.000000
  845       24.260964   0.000000
  846       24.315861   0.000000
  847       24.359251   0.000000
  848       24.378459   0.000000
  849       24.388482   0.000000
  850       24.393918   0.000000
  851       24.456194   0.000000
  852       24.555333   0.000000
  853       24.609538   0.000000
  854       24.660417   0.000000
  855       24.803791   0.000000
  856       24.810222   0.000000
  857       24.820655   0.000000
  858       24.834385   0.000000
  859       24.857053   0.000000
  860       24.873607   0.000000
  861       24.982110   0.000000
  862       25.037973   0.000000
  863       25.045501   0.000000
  864       25.084207   0.000000
  865       25.113941   0.000000
  866       25.128053   0.000000
  867       25.161867   0.000000
  868       25.180987   0.000000
  869       25.205076   0.000000
  870       25.224927   0.000000
  871       25.249293   0.000000
  872       25.271696   0.000000
  873       25.277507   0.000000
  874       25.326748   0.000000
  875       25.378463   0.000000
  876       25.415009   0.000000
  877       25.467246   0.000000
  878       25.473523   0.000000
  879       25.477112   0.000000
  880       25.501746   0.000000
  881       25.540660   0.000000
  882       25.571882   0.000000
  883       25.617363   0.000000
  884       25.690771   0.000000
  885       25.700014   0.000000
  886       25.712544   0.000000
  887       25.840758   0.000000
  888       25.921668   0.000000
  889       25.933435   0.000000
  890       25.963231   0.000000
  891       26.020625   0.000000
  892       26.032942   0.000000
  893       26.124325   0.000000
  894       26.146953   0.000000
  895       26.151159   0.000000
  896       26.180252   0.000000
  897       26.252931   0.000000
  898       26.271809   0.000000
  899       26.330650   0.000000
  900       26.341714   0.000000
  901       26.410969   0.000000