unknown system                          
           1
    12.169956    0.000000    0.000000
     0.000000   12.348710    0.000000
     0.000000    0.556456    9.008913
   Ti   Na   Ti   O 
     1    16    27    64
Direct configuration=     1
   0.12224850  0.36842750  0.75589500
   0.00000000  0.12245650  0.62676000
   0.25000000  0.11382450  0.87911100
   0.25000000  0.38617550  0.12088900
   0.00000000  0.37754350  0.37324000
   0.00000000  0.62245650  0.62676000
   0.25000000  0.61382450  0.87911100
   0.25000000  0.88617550  0.12088900
   0.00000000  0.87754350  0.37324000
   0.50000000  0.12245650  0.62676000
   0.75000000  0.11382450  0.87911100
   0.75000000  0.38617550  0.12088900
   0.50000000  0.37754350  0.37324000
   0.50000000  0.62245650  0.62676000
   0.75000000  0.61382450  0.87911100
   0.75000000  0.88617550  0.12088900
   0.50000000  0.87754350  0.37324000
   0.37775150  0.36842750  0.75589500
   0.00000000  0.25000000  0.00000000
   0.12224850  0.13157250  0.24410500
   0.37775150  0.13157250  0.24410500
   0.25000000  0.00000000  0.50000000
   0.25000000  0.25000000  0.50000000
   0.12224850  0.86842750  0.75589500
   0.37775150  0.86842750  0.75589500
   0.00000000  0.75000000  0.00000000
   0.12224850  0.63157250  0.24410500
   0.37775150  0.63157250  0.24410500
   0.25000000  0.50000000  0.50000000
   0.25000000  0.75000000  0.50000000
   0.62224850  0.36842750  0.75589500
   0.87775150  0.36842750  0.75589500
   0.50000000  0.25000000  0.00000000
   0.62224850  0.13157250  0.24410500
   0.87775150  0.13157250  0.24410500
   0.75000000  0.00000000  0.50000000
   0.75000000  0.25000000  0.50000000
   0.62224850  0.86842750  0.75589500
   0.87775150  0.86842750  0.75589500
   0.50000000  0.75000000  0.00000000
   0.62224850  0.63157250  0.24410500
   0.87775150  0.63157250  0.24410500
   0.75000000  0.50000000  0.50000000
   0.75000000  0.75000000  0.50000000
   0.25000000  0.25960800  0.71961400
   0.25000000  0.47394800  0.72460400
   0.00000000  0.25430900  0.77603900
   0.00000000  0.45853100  0.72194800
   0.38381450  0.35880800  0.95697000
   0.11618550  0.35880800  0.95697000
   0.38381450  0.14119200  0.04303000
   0.11618550  0.14119200  0.04303000
   0.00000000  0.04146900  0.27805200
   0.25000000  0.02605200  0.27539600
   0.25000000  0.24039200  0.28038600
   0.00000000  0.24569100  0.22396100
   0.14649900  0.12517900  0.48935800
   0.35350100  0.12517900  0.48935800
   0.35350100  0.37482100  0.51064200
   0.14649900  0.37482100  0.51064200
   0.25000000  0.75960800  0.71961400
   0.25000000  0.97394800  0.72460400
   0.00000000  0.75430900  0.77603900
   0.00000000  0.95853100  0.72194800
   0.38381450  0.85880800  0.95697000
   0.11618550  0.85880800  0.95697000
   0.38381450  0.64119200  0.04303000
   0.11618550  0.64119200  0.04303000
   0.00000000  0.54146900  0.27805200
   0.25000000  0.52605200  0.27539600
   0.25000000  0.74039200  0.28038600
   0.00000000  0.74569100  0.22396100
   0.14649900  0.62517900  0.48935800
   0.35350100  0.62517900  0.48935800
   0.35350100  0.87482100  0.51064200
   0.14649900  0.87482100  0.51064200
   0.75000000  0.25960800  0.71961400
   0.75000000  0.47394800  0.72460400
   0.50000000  0.25430900  0.77603900
   0.50000000  0.45853100  0.72194800
   0.88381450  0.35880800  0.95697000
   0.61618550  0.35880800  0.95697000
   0.88381450  0.14119200  0.04303000
   0.61618550  0.14119200  0.04303000
   0.50000000  0.04146900  0.27805200
   0.75000000  0.02605200  0.27539600
   0.75000000  0.24039200  0.28038600
   0.50000000  0.24569100  0.22396100
   0.64649900  0.12517900  0.48935800
   0.85350100  0.12517900  0.48935800
   0.85350100  0.37482100  0.51064200
   0.64649900  0.37482100  0.51064200
   0.75000000  0.75960800  0.71961400
   0.75000000  0.97394800  0.72460400
   0.50000000  0.75430900  0.77603900
   0.50000000  0.95853100  0.72194800
   0.88381450  0.85880800  0.95697000
   0.61618550  0.85880800  0.95697000
   0.88381450  0.64119200  0.04303000
   0.61618550  0.64119200  0.04303000
   0.50000000  0.54146900  0.27805200
   0.75000000  0.52605200  0.27539600
   0.75000000  0.74039200  0.28038600
   0.50000000  0.74569100  0.22396100
   0.64649900  0.62517900  0.48935800
   0.85350100  0.62517900  0.48935800
   0.85350100  0.87482100  0.51064200
   0.64649900  0.87482100  0.51064200
