

 Parallel Execution: Process Information
 ==============================================================================
 Rank   Node Name                              NodeID   MyNodeRank  NodeMaster
    0   dingawonanke.local                        0          0          0
    1   dingawonanke.local                        0          1         -1
    2   dingawonanke.local                        0          2         -1
    3   dingawonanke.local                        0          3         -1
    4   dingawonanke.local                        0          4         -1
    5   dingawonanke.local                        0          5         -1
    6   dingawonanke.local                        0          6         -1
    7   dingawonanke.local                        0          7         -1
    8   dingawonanke.local                        0          8         -1
    9   dingawonanke.local                        0          9         -1
 ==============================================================================


May use up to 7812MB of RAM as shared memory on node 0

 *******************************************************************************
 *                                                                             *
 *  --------------------------------                                           *
 *   Amsterdam Modeling Suite (AMS)              2021.105                      *
 *  --------------------------------                                           *
 *                                               r98925 2021-11-25             *
 *                                                                             *
 *                                                                             *
 *                              =================                              *
 *                              |               |                              *
 *                              |     A M S     |                              *
 *                              |               |                              *
 *                              =================                              *
 *                                                                             *
 *                                                                             *
 *   Online information and documentation:  https://www.scm.com/support/       *
 *   E-mail:  support@scm.com   info@scm.com                                   *
 *                                                                             *
 *   Scientific publications using AMS results must be properly referenced     *
 *   See the User Manuals (or the web site) for recommended citations          *
 *   The terms and conditions of the End User License Agreement apply to       *
 *   the use of AMS, https://www.scm.com/license-terms/                        *
 *                                                                             *
 **********************  x86_64_darwin_intel / openmpi  ************************
 
 Licensed to: Dr Matt Addicoat /  Department of Chemistry and Physics, Nottingham Trent University 2023-06-06 10:08:00
 SCM User ID: u20241
  
 AMS 2021.105  RunTime: Jun06-2023 14:43:02  ShM Nodes: 1  Procs: 10

 AMS jobname: ams
 AMS jobid  : 1938174538

 Start   directory: /Users/Dinga_1/OneDrive - Nottingham Trent University/Examples_ams/tmp.Dinga.52964.0.noindex/
 Results directory: /Users/Dinga_1/OneDrive - Nottingham Trent University/Examples_ams/band_pbe_sp.results/
 Scratch directory: /Users/Dinga_1/src/ams_scratch/amstmp_ams_kid0.1938174538/


 Communication costs MPI_COMM_WORLD:      2.816 usec per message,   0.0335 usec per 8-byte item
 Communication costs for intra-node:      0.492 usec per message,   0.0560 usec per 8-byte item

 RNG seed: -287578262 -925359512 -656462033 1698718471 -36408221 1159768822 -136688301 -725840744
       ***************************
       *  GEOMETRY OPTIMIZATION  *
       ***************************

Optimization Method                    Quasi Newton
Optimization Coordinates               Delocalized Coordinates
Optimize lattice                       F
 
 ------------------------------------------------------
 Convergence criteria (Hartree,Angstrom)
 ------------------------------------------------------
 Maximum gradient               0.001000000000
 Maximum rms gradient           0.000666666667
 Maximum step allowed           0.010000000000
 Maximum rms step allowed       0.006666666667
 Maximum energy change allowe   0.000020000000
 Maximum stress energy allowe   0.000500000000
 
Initial model Hessian                  Automatic Hessian
 
------------------------------------
Quasi-Newton Optimizer Parameters
------------------------------------
Hessian Update Method                  BFGS
Maximum number of steps                  250
First GDIIS cycle                          0
Maximum GDIIS vectors                      0
Trust radius (bohr)                        0.200000
Trust radius varies                        T
Constraints converged at all steps         T
Use projector                              T
 
 Rigid motions settings for: old optimizer
 Atomic rotations (x,y,z):     F F F
 Atomic translations (x,y,z):  T T T
 Tolerance:                   1.000000000000000E-006
 
--------
Geometry
--------
Formula: ClCs
Atoms
  Index Symbol   x (angstrom)   y (angstrom)   z (angstrom)
      1     Cs     0.00000000     0.00000000     0.00000000
      2     Cl    -2.06000000    -2.06000000    -2.06000000
 
Lattice vectors (angstrom)
      1     4.12000000     0.00000000     0.00000000
      2     0.00000000     4.12000000     0.00000000
      3     0.00000000     0.00000000     4.12000000
 
Unit cell volume (angstrom^3)        69.93453
 
Total System Charge             0.00000
Bonding info available!
 



                     **************************************************************************
                     *  BAND 2021.105  RunTime: Jun06-2023 14:43:05  ShM Nodes: 1  Procs: 10  *
                     **************************************************************************
  

-----------------
Band Engine Input
-----------------

XC
GGA PBE
End

Number of symmetry operators: 48
 Using automatic Hessian for delocalized coordinates.
 Using the following basis set files:
 
 Cs             : /Applications/AMS2021.105.app/Contents/Resources/amshome/atomicdata/Band/DZ/Cs.4d
 Cl             : /Applications/AMS2021.105.app/Contents/Resources/amshome/atomicdata/Band/DZ/Cl.2p



 =====================
 C O N F I N E M E N T
 =====================
  
 Basis functions confinement radius        10.000
 Width                                      1.000
 use shared memory for sandwiching:  F



 ===============================
 M O D E L   P A R A M E T E R S
 ===============================
  
 DENSITY FUNCTIONAL POTENTIAL (scf)
    LDA:                               PW92                                    == Not Default ==
    Gradient Corrections:              PBEc PBEx                               == Not Default ==
 DENSITY FUNCTIONAL ENERGY (post-scf)
    Gradient Corrections:              Becke88 Perdew86 PW91x PW91c EV93x PW...== Not Default ==

 SPIN  (restricted / unrestr.)
    Molecule:                          Restricted                               

 OTHER ASPECTS
    Relativistic Corrections:          scalar (ZORA,APA)                        

    Nuclear Charge Density Model:      Point Charge Nuclei                      



 ========================
 S. C. F.   O P T I O N S
 ========================
  

 * DIIS settings info for DIRAC   *
    Cond              0.1E+07
    CLarge          20.00
    CHuge           50.00
    DiMix            1.00
    IopPly              1
    NCyDmp              5
    IPrint              0
    Adaptable           F
    Method         diis                
    Dimix Decay fac  1.00

 * DIIS settings info for SCF     *
    Cond              0.1E+07
    CLarge          20.00
    CHuge           20.00
    DiMix            0.20
    IopPly              1
    NCyDmp              1
    IPrint              0
    Adaptable           T
    Method         DIIS                
    Dimix Decay fac  1.00
 growth factor   1.10000000000000     
 shrink factor  0.909090909100000     

    Mix            0.0750
    Degenerate          F
    Edegen          1.0E-04
    SCFRTX           9.90
    Convrg          1.4E-06
    Ncyclx            300
 getinp: use Shared Memory T




                             **  R A D I A L   F U N C T I O N S  **

 TOTAL NR. OF TYPES OF ATOMS                              2




                             ---------------------
                                   T Y P E   1
                             ---------------------

 RADIAL POINTS                                         3000




 ............................ D I R A C ................................

 NUCLEAR CHARGE                                55.0000               **>  Cs  <**
 (POINT NUCLEUS)
 VALENCE CHARGE                                 9.0000
 NET CHARGE                                     0.0000

 VALENCE ORBITALS INCLUDED IN THE CRYSTAL BASIS
 NR. OF (RADIAL) CORE FUNCTIONS                 9
 Radial grid       nr of points               3000
                   range                      0.10E-05     0.10E+03
  
  ** SCF-FUNCTIONAL INFO **
    ZORA
    SCALAR
  
 Self consistent error   0.17E-08


  Orbital    Q         E(a.u.)     E(eV)           <R>
 -------------------------------------------------------------------
  1S         2.00  -1370.525362     -37293.8926   0.025
  2S         2.00   -207.947593      -5658.5419   0.112
  2P         6.00   -186.430240      -5073.0249   0.098
  3S         2.00    -42.970498      -1169.2867   0.299
  3P         6.00    -36.109304       -982.5842   0.297
  3D        10.00    -26.064097       -709.2402   0.273
  4S         2.00     -8.095425       -220.2877   0.695
  4P         6.00     -5.908103       -160.7677   0.740
  4D        10.00     -2.729088        -74.2623   0.837
  5S         2.00     -0.982075        -26.7236   1.742
  5P         6.00     -0.496597        -13.5131   2.088
  6S         1.00     -0.076658         -2.0860   5.690


 targetR   5.68992411058499      expectR   5.68992411058499      sigma
   5.04256395058325      diffuseFactor   1.00000000000000     

 NR. OF RADIAL VALENCE ORBITALS                           8
 NR. OF RADIAL CORE ORBITALS                              9
 NR. OF RADIAL FIT FUNCTIONS                              0




                             ---------------------
                                   T Y P E   2
                             ---------------------

 RADIAL POINTS                                         3000




 ............................ D I R A C ................................

 NUCLEAR CHARGE                                17.0000               **>  Cl  <**
 (POINT NUCLEUS)
 VALENCE CHARGE                                 7.0000
 NET CHARGE                                     0.0000

 VALENCE ORBITALS INCLUDED IN THE CRYSTAL BASIS
 NR. OF (RADIAL) CORE FUNCTIONS                 3
 Radial grid       nr of points               3000
                   range                      0.10E-05     0.10E+03
  
  ** SCF-FUNCTIONAL INFO **
    ZORA
    SCALAR
  
 Self consistent error   0.95E-09


  Orbital    Q         E(a.u.)     E(eV)           <R>
 -------------------------------------------------------------------
  1S         2.00   -101.453091      -2760.6791   0.091
  2S         2.00     -9.289636       -252.7839   0.444
  2P         6.00     -7.044018       -191.6775   0.407
  3S         2.00     -0.760399        -20.6915   1.536
  3P         5.00     -0.315848         -8.5947   1.844


 targetR   1.84381275572838      expectR   1.84381275572838      sigma
   1.63403650961974      diffuseFactor   1.00000000000000     

 NR. OF RADIAL VALENCE ORBITALS                           4
 NR. OF RADIAL CORE ORBITALS                              3
 NR. OF RADIAL FIT FUNCTIONS                              0



 ======================================================
 R A N G E S    F O R    A T O M I C    O R B I T A L S
 ======================================================
  
   --------------------------------------------------------------------------------
                            valence            core valence kinetic    core kinetic
   --------------------------------------------------------------------------------

             Cutoff       1.000E-06       1.000E-06       1.000E-06       1.000E-06
   --------------------------------------------------------------------------------
 
   --------------------------------------------------------------------------------
               Type         valence            core valence kinetic    core kinetic
   --------------------------------------------------------------------------------
                 Cs           18.36            7.31           18.81            6.95
                 Cl           14.09            4.52           14.27            4.47
   --------------------------------------------------------------------------------
 



 ====================
 R U N    C O N F I G
 ====================
  
 
 Use Symmetry  .  .  .  .  .  .  .  .  .  .  .  .  .  .  .  .  T
 Calculate gradient of basis  .  .  .  .  .  .  .  .  .  .  .  T
 Calculate sec. der. of basis .  .  .  .  .  .  .  .  .  .  .  F
 Calculate operator T working on basis .  .  .  .  .  .  .  .  T
 Calculate dk-basis  .  .  .  .  .  .  .  .  .  .  .  .  .  .  F
 Calculate gradient of fit .  .  .  .  .  .  .  .  .  .  .  .  T
 Calculate sec. der. of fit.  .  .  .  .  .  .  .  .  .  .  .  T
 Calculate gradient of fit pot.  .  .  .  .  .  .  .  .  .  .  F
 Kin. energy via grad.  .  .  .  .  .  .  .  .  .  .  .  .  .  F
 Turnover rule for xc.  .  .  .  .  .  .  .  .  .  .  .  .  .  F
 Calculate gradient of energy .  .  .  .  .  .  .  .  .  .  .  T
 Calculate analytical strain derivatives  .  .  .  .  .  .  .  F
 Calculate kin. energy density.  .  .  .  .  .  .  .  .  .  .  F
 Calculate nuc. grad of kin. energy density  .  .  .  .  .  .  F
 Calculate der. of density .  .  .  .  .  .  .  .  .  .  .  .  T
 Calculate second der. of density.  .  .  .  .  .  .  .  .  .  T
 Calculate nuc. grad. of density .  .  .  .  .  .  .  .  .  .  T
 Calculate nuc. grad. of grad. density .  .  .  .  .  .  .  .  F
 Exact rho during SCF.  .  .  .  .  .  .  .  .  .  .  .  .  .  T
 Exact grad. rho during SCF.  .  .  .  .  .  .  .  .  .  .  .  F
 Exact grad. rho post SCF  .  .  .  .  .  .  .  .  .  .  .  .  T
 Store history of dens. matrix.  .  .  .  .  .  .  .  .  .  .  T
 Store original Bloch functions  .  .  .  .  .  .  .  .  .  .  F
 Direct fit .  .  .  .  .  .  .  .  .  .  .  .  .  .  .  .  .  F
 Direct basis  .  .  .  .  .  .  .  .  .  .  .  .  .  .  .  .  T
 STO based fitting.  .  .  .  .  .  .  .  .  .  .  .  .  .  .  F
 Zlm fitting.  .  .  .  .  .  .  .  .  .  .  .  .  .  .  .  .  T
 Calculate fragment energy in mol. grid.  .  .  .  .  .  .  .  T
 Map atoms to unit cell .  .  .  .  .  .  .  .  .  .  .  .  .  T
 Print output for radial.  .  .  .  .  .  .  .  .  .  .  .  .  T
 Calculate DOS .  .  .  .  .  .  .  .  .  .  .  .  .  .  .  .  T
 Calculate population analysis.  .  .  .  .  .  .  .  .  .  .  T
 Calculate band structure  .  .  .  .  .  .  .  .  .  .  .  .  F
 Calculate EFG .  .  .  .  .  .  .  .  .  .  .  .  .  .  .  .  F
 Calculate properties.  .  .  .  .  .  .  .  .  .  .  .  .  .  T
 Calculate kinetic energy  .  .  .  .  .  .  .  .  .  .  .  .  T
 Save file tape10 .  .  .  .  .  .  .  .  .  .  .  .  .  .  .  F
 Save file Points .  .  .  .  .  .  .  .  .  .  .  .  .  .  .  F



 ==================================================
 G E O M E T R Y    I N    X - Y - Z    F O R M A T
 ==================================================
  
 Cs      1.030000000     1.030000000     1.030000000
 Cl     -1.030000000    -1.030000000    -1.030000000
 VEC1     4.120000000     0.000000000     0.000000000
 VEC2     0.000000000     4.120000000     0.000000000
 VEC3     0.000000000     0.000000000     4.120000000

   Total nr. of atoms:          2





                       3 - D I M E N S I O N A L   C R Y S T A L




   REAL SPACE LATTICE VECTORS                         LENGTH
   --------------------------                         ------
   1)   7.7856716335   0.0000000000   0.0000000000     7.786
   2)   0.0000000000   7.7856716335   0.0000000000     7.786
   3)   0.0000000000   0.0000000000   7.7856716335     7.786

   ----------------------------------------
   Angles between lattice vectors
   ----------------------------------------

     pair          angle

     2 1            90.000000
     3 1            90.000000
     3 2            90.000000
 

   Volume of unit cell (a.u.):               471.94
   Volume of unit cell (Angstrom**3):         69.93



   K-SPACE LATTICE VECTORS                            LENGTH
   -----------------------                            ------
   1)   0.8070190477   0.0000000000   0.0000000000     0.807
   2)   0.0000000000   0.8070190477   0.0000000000     0.807
   3)   0.0000000000   0.0000000000   0.8070190477     0.807


 INTER-ATOMIC DISTANCES (REDUCED)
 --------------------------------
   2)
    6.7426


 SMALLEST INTERATOMIC DISTANCE =      6.742589420099
 BeckeGrid: periodic partition function using cells up to order           12



 ===============================
 K - S P A C E   S A M P L I N G
 ===============================
  
 Automatic Regular k-space grid for quality: NORMAL
 
    lattice-vec. size(real space)    size(k-space)   #points   delta-k
               1             7.79             0.81         5     0.202
               2             7.79             0.81         5     0.202
               3             7.79             0.81         5     0.202
 
             Total nr. of unique k-points    10




 =========
 C E L L S
 =========
  

   Nr. of cells for valence functions:        377



 ===========================
 L I N E A R   S C A L I N G
 ===========================
  
 Neglecting functions
              Valence  1.00E-06
                 Core  1.00E-06
                  Fit  0.00E+00
            Multipole  1.00E-08
   Screening function  3.16E-05



 =========================================
 N U M E R I C A L   I N T E G R A T I O N
 =========================================
  
 Becke grid quality: NORMAL         
  
 Lebedev angular grid order:             min:  11 max:  31
 Nr. of radial points:                   min:  66 max:  96

 Total nr. of points                                  53856
 Block length                                           102
 Nr. of unique blocks                                    11
 Total nr. of blocks                                    528

 Percentage dummy points                               0.00%
 Nr. of k-points processed together in baspnt            30
 Nr. of symmetry operators (real space)                  48
 Symmetry operators in k-space                           48



 Total charge,    analytically                           72.000000000000
                  numerically                            71.999277155410
                  relative error                     -0.10E-04

 Valence density, analytically                           16.000000000000
                  numerically                            15.999281337460
                  relative error                     -0.45E-04



 INTEGRATED CHARGE PER ATOM:

  SET      TOTAL CHARGE      REL. ERROR      Valence CHARGE    REL. ERROR
 ------------------------------------------------------------------------
   1      54.9994032936      -0.108E-04      8.9994078194      -0.658E-04
   2      16.9998738618      -0.742E-05      6.9998735181      -0.181E-04

 Norms of functions from routine baspnt
 Maximum error in norms     7.680E-04 for function        7
 Minimum accuracy required  1.000E-03

 Norms of functions from routine corpnt
 Maximum error in norms     7.037E-07 for function       23
 Minimum accuracy required  1.000E-03

 Sparseness info - valence
   nr. of functions              26
   max. nr. of functions         26
   min. nr. of functions         26
   avr. nr. of functions         26
   percentage stored          100.0
 

 Sparseness info - core
   nr. of functions              28
   max. nr. of functions         28
   min. nr. of functions         10
   avr. nr. of functions         23
   percentage stored           82.1
 

 Frozen core overlap error  5.92E-06
 PrepareHam: needLdotB F



 ========================
 Density Fitting (zlmFit)
 ========================
  
 ZlmFit Fit Quality: NORMAL         
  
 Max L-expansion:                        min:   5 max:   7
 Nr. of radial interpolation points:     min:  54 max:  78
 BeckeGrid: periodic partition function using cells up to order            8
 BeckeGrid: periodic partition function using cells up to order            8



                                          *******************************
                                          *  S C F   P R O C E D U R E  *
                                          *******************************
  

 Nr. of basis functions                   26
 Nr. of core functions                    28
 Nr. of fit functions                      0
 Nr. of symmetry unique K-points          10
 Valence charge                           16.00

 CONVERGENCE REACHED



                                             *************************
                                             *  P R O P E R T I E S  *
                                             *************************
  



 ===================================
 B A N D   E N E R G Y   R A N G E S
 ===================================
  
 The energies below are in Hartree.
 =================================================
       band          min          max   occupation
 =================================================
          1     -1.03262     -1.02458      2.00000
          2     -0.76548     -0.75726      2.00000
          3     -0.56409     -0.53572      2.00000
          4     -0.56409     -0.53034      2.00000
          5     -0.55516     -0.52731      2.00000
          6     -0.35961     -0.31613      2.00000
          7     -0.35633     -0.31613      2.00000
          8     -0.35633     -0.31613      2.00000
          9     -0.12438      0.01568      0.00000
         10     -0.09043      0.01568      0.00000
         11     -0.09043      0.02159      0.00000
         12      0.00770      0.10632      0.00000
         13      0.00987      0.12797      0.00000
         14      0.07629      0.12797      0.00000
         15      0.18481      0.27496      0.00000
         16      0.19569      0.40589      0.00000
         17      0.24510      0.55196      0.00000
         18      0.39898      0.74353      0.00000
         19      0.56859      0.91230      0.00000
         20      0.62298      0.91230      0.00000
         21      0.70437      0.91230      0.00000
         22      0.64329      1.15094      0.00000
 =================================================
 Final bond energy (PBE)                                      -0.23505514      -6.3962     -147.50

 Delocalized step failed. Taking Cartesian step

 
---------------------------------------------------------
Geometry Convergence after Step   1       ** CONVERGED **
---------------------------------------------------------
current energy                               -0.23505514 Hartree
energy change                      -0.23505514     0.00002000    F
constrained gradient max            0.00000000     0.00100000    T
constrained gradient rms            0.00000000     0.00066667    T
gradient max                        0.00000000
gradient rms                        0.00000000
cart. step max                      0.00000000     0.01000000    T
cart. step rms                      0.00000000     0.00666667    T
 
Geometry optimization converged

Optimized geometry:
 
--------
Geometry
--------
Formula: ClCs
Atoms
  Index Symbol   x (angstrom)   y (angstrom)   z (angstrom)
      1     Cs     0.00000000     0.00000000     0.00000000
      2     Cl    -2.06000000    -2.06000000    -2.06000000
 
Lattice vectors (angstrom)
      1     4.12000000     0.00000000     0.00000000
      2     0.00000000     4.12000000     0.00000000
      3     0.00000000     0.00000000     4.12000000
 
Unit cell volume (angstrom^3)        69.93453
 
Total System Charge             0.00000
Bonding info available!
 
Performing a single point calculation on the final geometry ...

 K-points configuration loaded from previous results: GOStep1.rkf
 SCF procedure tweaks
   * counter           0
   * addExtraPotential F
   * addExtraPotentialOnLastCycle F
   * extraPotentialName
   * reuseEigenSystem F
 
 skipDiagonalization F parmix=  7.500000000000000E-002 ncylx=         300
 restartSCF T
 forceRestartSolution F



                                          *******************************
                                          *  S C F   P R O C E D U R E  *
                                          *******************************
  

 Nr. of basis functions                   26
 Nr. of core functions                    28
 Nr. of fit functions                      0
 Nr. of symmetry unique K-points          10
 Valence charge                           16.00

 Settings for convergence
 --------------------------------------------------------------------------------
   Initial density:          psi
 --------------------------------------------------------------------------------

 restarting scf, max mismatch in geometries:   1.332267629550188E-015
 cyc=  0 err=1.06E-06 cpu=   2s ela=   2s
 cyc=  1 err=1.82E-07 meth=m nvec= 1 mix=0.0825 cpu=   2s ela=   2s fit=2.98E-03

 CONVERGENCE REACHED
 cyc=  2 err=1.57E-07 meth=d nvec= 2 mix=0.3543 cpu=   2s ela=   2s fit=2.98E-03


         -------------------- CYCLE    3 --------------------
 Self consistent error (density)                       1.57E-07



                                             *************************
                                             *  P R O P E R T I E S  *
                                             *************************
  



 ===================================
 B A N D   E N E R G Y   R A N G E S
 ===================================
  
 The energies below are in Hartree.
 =================================================
       band          min          max   occupation
 =================================================
          1     -1.03262     -1.02458      2.00000
          2     -0.76548     -0.75726      2.00000
          3     -0.56409     -0.53572      2.00000
          4     -0.56409     -0.53034      2.00000
          5     -0.55516     -0.52731      2.00000
          6     -0.35961     -0.31613      2.00000
          7     -0.35633     -0.31613      2.00000
          8     -0.35633     -0.31613      2.00000
          9     -0.12438      0.01568      0.00000
         10     -0.09043      0.01568      0.00000
         11     -0.09043      0.02159      0.00000
         12      0.00770      0.10632      0.00000
         13      0.00987      0.12797      0.00000
         14      0.07629      0.12797      0.00000
         15      0.18481      0.27496      0.00000
         16      0.19569      0.40589      0.00000
         17      0.24510      0.55196      0.00000
         18      0.39898      0.74353      0.00000
         19      0.56859      0.91230      0.00000
         20      0.62298      0.91230      0.00000
         21      0.70437      0.91230      0.00000
         22      0.64329      1.15094      0.00000
 =================================================

----------------------------------------
Band gap information
----------------------------------------
Number of valence electrons                    16
Valence band index                              8
Top of valence band (a.u.)                 -0.316
Bottom of conduction band (a.u.)           -0.124
Top of valence band at k-point              0.000     0.000     0.000
Bottom of conduction band at k-point        0.000     0.000     0.000
Direct band gap
Band gap (a.u.)                             0.192
Band gap (eV)                               5.218
Band gap (kcal/mol)                       120.323
 



 =============================
 E N E R G Y   A N A L Y S I S
 =============================
  
 Formation energy w.r.t. spherically-symmetric spin-restricted atoms

                                                             (a.u.)            (eV)     (kCal/mol)
 --------------------------------------------------------------------------------------------------

 Kinetic                                                       0.24945909       6.7881      156.54
 XC                                                           -0.26892201      -7.3177     -168.75
 Electrostatic                                                -0.27146319      -7.3869     -170.35
 V(atomic)*def                                                 0.04257104       1.1584       26.71
 V(def)*def                                                    0.01329993       0.3619        8.35
 --------------------------------------------------------------------------------------------------

 Final bond energy (PBE)                                      -0.23505514      -6.3962     -147.50
 
 Fit error correction used (Vdef*err)                         -0.00008296      -0.0023       -0.05

 ==================================================================================================
 Rigid motions settings for: RemoveFreeMovements
 Atomic rotations (x,y,z):     F F F
 Atomic translations (x,y,z):  T T T
 Tolerance:                   1.000000000000000E-006



 ================================
 E N E R G Y    G R A D I E N T S
 ================================
  
 (Energy gradients wrt nuclear displacements in Hartree per Bohr)
 
 
 FINAL GRADIENTS
    1 Cs  0.000000  0.000000  0.000000
    2 Cl -0.000000 -0.000000 -0.000000
 



 =======================
 F O R M   F A C T O R S
 =======================
  




 Form factors (amplitude and phase/pi)

 First line : direct projection 
 Second line: overlap taken into account

 N.B.: the coefficients in the expansion of the total coulomb potential
       due to the nuclear charges have been removed analytically.

 --------------------------------------------------------------------------------------------
                                       Total            Total     Deformation     Deformation
        Coordinates                  Density        Potential         Density       Potential
 --------------------------------------------------------------------------------------------

   1)      0      0      0      72.0000  1.00  165.7694  0.00    0.0007  1.00    5.5930  1.00
       0.000  0.000  0.000      71.9884  1.00  165.7445 -0.00    0.0007  1.00    5.5926  1.00

   2)     -1      0      0      34.4144  0.50   34.4096  0.50    0.2780 -0.50    0.2827 -0.50
      -0.807  0.000  0.000      34.4157  0.50   34.4095  0.50    0.2780 -0.50    0.2827 -0.50

   3)     -1     -1      0      58.8737  0.00   58.8699  0.00    0.1562  0.00    0.1538  0.00
      -0.807 -0.807  0.000      58.8595  0.00   58.8748 -0.00    0.1562  0.00    0.1537  0.00

 --------------------------------------------------------------------------------------------


   min. nr. of func/process                     5
   noper                                       48
   nfunc                                       54
   nprocsThisNode                              10
   nfuncThisProcess                             6
   safeMaxFuncSliceSize                         0
   requestedMaxFuncSliceSize                  128
   actual maxFuncSliceSize                      6
   numSlices                                    1
   storeCoopPerBasPair                          F
   nEnergies                                  116
       Nr. of bands used for DOS:     19
   nband_dosplot                               19
   bandSliceSize                               19
   num band slices                              1



 =======================================
 M U L L I K E N   P O P U L A T I O N S
 =======================================
  

 BASISFUNCTION         Q
 --------------------------------
 1/Cs/NO/5s                  1.946
 1/Cs/NO/5p_y                1.991
 1/Cs/NO/5p_z                1.991
 1/Cs/NO/5p_x                1.991
 1/Cs/NO/6s                  0.279
 1/Cs/STO2.35/5s             0.013
 1/Cs/STO1.4/6s             -0.062
 1/Cs/STO1.85/5p_y           0.013
 1/Cs/STO1.85/5p_z           0.013
 1/Cs/STO1.85/5p_x           0.013
 1/Cs/STO1.05/6p_y           0.005
 1/Cs/STO1.05/6p_z           0.005
 1/Cs/STO1.05/6p_x           0.005
 1/Cs/STO1.7/5d_xy           0.049
 1/Cs/STO1.7/5d_yz           0.049
 1/Cs/STO1.7/5d_z2           0.012
 1/Cs/STO1.7/5d_xz           0.049
 1/Cs/STO1.7/5d_x2-y2        0.012
                    -------------
 Charge on atom              8.374
 
 2/Cl/NO/3s                  1.884
 2/Cl/NO/3p_y                2.123
 2/Cl/NO/3p_z                2.123
 2/Cl/NO/3p_x                2.123
 2/Cl/STO1.75/3s             0.073
 2/Cl/STO2.45/3p_y          -0.233
 2/Cl/STO2.45/3p_z          -0.233
 2/Cl/STO2.45/3p_x          -0.233
                    -------------
 Charge on atom              7.626
 
 Total charge               16.000


 ATOM/ATOM OVERLAP MATRIX
 (OFF-DIAGONAL ELEMENTS HALF OF OVERLAP POPULATION)
 (order of atoms as on input)
 ATOM         CORE    1       2       3       4       5       6       7       8       9
           -------------------------------------------------------------------------------
   0)
      1 :  0.0156
   1)
      1 : -0.0016  8.1895
   2)
      1 : -0.0140  0.1862  7.4537



 ======================
 Atomic Charge Analysis
 ======================
  
 Deformation charges with respect to neutral atoms.
 
   ----------------------------------------------------------
     Atom      Hirshfeld     Voronoi         CM5    Mulliken
   ----------------------------------------------------------
      1  Cs        0.288       0.282       0.544       0.626
      2  Cl       -0.288      -0.282      -0.544      -0.626
   ----------------------------------------------------------
      Total:       0.000      -0.001       0.000       0.000
   ----------------------------------------------------------
 
 WARNING: matrix written, but never read. Matrix name: S(VOC/VOC)
 -------------
 Phonon config
 -------------
 interpol                  100
 step size (bohr)   7.558904498503081E-002
 super cell                  2           0           0           0           2
           0           0           0           2
 useSymmetry       T
 minTempKelvin      0.000000000000000E+000
 maxTempKelvin       1000.00000000000     
 numTemperatures          1000
 numDosEnergies           1000
 nSides                      2
 nParallel                  -1
 automaticBZPath   T


P H O N O N   P R E P

            Finite displacment (bohr)     :                0.076
            Finite displacment (Angstrom) :                0.040
                  Super cell transformation
                                            2    0    0
                                            0    2    0
                                            0    0    2
    Number of primitive cells in super cell     8
              Atomic coordinates (Angstrom)
                                             Index     Symbol       Mass                  x                     y                     z   
                                                 1 Cs            132.905          0.000000000          0.000000000          0.000000000
                                                 2 Cl             34.969         -2.060000000         -2.060000000         -2.060000000
                                                 3 Cs            132.905          0.000000000          0.000000000         -4.120000000
                                                 4 Cl             34.969         -2.060000000         -2.060000000         -6.180000000
                                                 5 Cs            132.905          0.000000000         -4.120000000          0.000000000
                                                 6 Cl             34.969         -2.060000000         -6.180000000         -2.060000000
                                                 7 Cs            132.905          0.000000000         -4.120000000         -4.120000000
                                                 8 Cl             34.969         -2.060000000         -6.180000000         -6.180000000
                                                 9 Cs            132.905         -4.120000000          0.000000000          0.000000000
                                                10 Cl             34.969         -6.180000000         -2.060000000         -2.060000000
                                                11 Cs            132.905         -4.120000000          0.000000000         -4.120000000
                                                12 Cl             34.969         -6.180000000         -2.060000000         -6.180000000
                                                13 Cs            132.905         -4.120000000         -4.120000000          0.000000000
                                                14 Cl             34.969         -6.180000000         -6.180000000         -2.060000000
                                                15 Cs            132.905         -4.120000000         -4.120000000         -4.120000000
                                                16 Cl             34.969         -6.180000000         -6.180000000         -6.180000000
                 Lattice Vectors (Angstrom)
                                                         x                     y                     z   
                                                 8.240000000          0.000000000          0.000000000
                                                 0.000000000          8.240000000          0.000000000
                                                 0.000000000          0.000000000          8.240000000
            Finite displacements (Angstrom)
                                             Index     Symbol       Mass                  x                     y                     z   
                                                 1 Cs            132.905          0.040000000          0.000000000          0.000000000
                                                 2 Cl             34.969          0.040000000          0.000000000          0.000000000
 
 Using the following basis set files:
 
 Cs             : /Applications/AMS2021.105.app/Contents/Resources/amshome/atomicdata/Band/DZ/Cs.4d
 Cl             : /Applications/AMS2021.105.app/Contents/Resources/amshome/atomicdata/Band/DZ/Cl.2p



 =====================
 C O N F I N E M E N T
 =====================
  
 Basis functions confinement radius        10.000
 Width                                      1.000
 use shared memory for sandwiching:  F



 ===============================
 M O D E L   P A R A M E T E R S
 ===============================
  
 DENSITY FUNCTIONAL POTENTIAL (scf)
    LDA:                               PW92                                    == Not Default ==
    Gradient Corrections:              PBEc PBEx                               == Not Default ==
 DENSITY FUNCTIONAL ENERGY (post-scf)
    Gradient Corrections:              Becke88 Perdew86 PW91x PW91c EV93x PW...== Not Default ==

 SPIN  (restricted / unrestr.)
    Molecule:                          Restricted                               

 OTHER ASPECTS
    Relativistic Corrections:          scalar (ZORA,APA)                        

    Nuclear Charge Density Model:      Point Charge Nuclei                      



 ========================
 S. C. F.   O P T I O N S
 ========================
  

 * DIIS settings info for DIRAC   *
    Cond              0.1E+07
    CLarge          20.00
    CHuge           50.00
    DiMix            1.00
    IopPly              1
    NCyDmp              5
    IPrint              0
    Adaptable           F
    Method         diis                
    Dimix Decay fac  1.00

 * DIIS settings info for SCF     *
    Cond              0.1E+07
    CLarge          20.00
    CHuge           20.00
    DiMix            0.20
    IopPly              1
    NCyDmp              1
    IPrint              0
    Adaptable           T
    Method         DIIS                
    Dimix Decay fac  1.00
 growth factor   1.10000000000000     
 shrink factor  0.909090909100000     

    Mix            0.0750
    Degenerate          F
    Edegen          1.0E-04
    SCFRTX           9.90
    Convrg          4.0E-06
    Ncyclx            300
 getinp: use Shared Memory T




                             **  R A D I A L   F U N C T I O N S  **

 TOTAL NR. OF TYPES OF ATOMS                              2




                             ---------------------
                                   T Y P E   1
                             ---------------------

 RADIAL POINTS                                         3000




 ............................ D I R A C ................................

 NUCLEAR CHARGE                                55.0000               **>  Cs  <**
 (POINT NUCLEUS)
 VALENCE CHARGE                                 9.0000
 NET CHARGE                                     0.0000

 VALENCE ORBITALS INCLUDED IN THE CRYSTAL BASIS
 NR. OF (RADIAL) CORE FUNCTIONS                 9
 Radial grid       nr of points               3000
                   range                      0.10E-05     0.10E+03
  
  ** SCF-FUNCTIONAL INFO **
    ZORA
    SCALAR
  
 Self consistent error   0.17E-08


  Orbital    Q         E(a.u.)     E(eV)           <R>
 -------------------------------------------------------------------
  1S         2.00  -1370.525362     -37293.8926   0.025
  2S         2.00   -207.947593      -5658.5419   0.112
  2P         6.00   -186.430240      -5073.0249   0.098
  3S         2.00    -42.970498      -1169.2867   0.299
  3P         6.00    -36.109304       -982.5842   0.297
  3D        10.00    -26.064097       -709.2402   0.273
  4S         2.00     -8.095425       -220.2877   0.695
  4P         6.00     -5.908103       -160.7677   0.740
  4D        10.00     -2.729088        -74.2623   0.837
  5S         2.00     -0.982075        -26.7236   1.742
  5P         6.00     -0.496597        -13.5131   2.088
  6S         1.00     -0.076658         -2.0860   5.690


 targetR   5.68992411058499      expectR   5.68992411058499      sigma
   5.04256395058325      diffuseFactor   1.00000000000000     

 NR. OF RADIAL VALENCE ORBITALS                           8
 NR. OF RADIAL CORE ORBITALS                              9
 NR. OF RADIAL FIT FUNCTIONS                              0




                             ---------------------
                                   T Y P E   2
                             ---------------------

 RADIAL POINTS                                         3000




 ............................ D I R A C ................................

 NUCLEAR CHARGE                                17.0000               **>  Cl  <**
 (POINT NUCLEUS)
 VALENCE CHARGE                                 7.0000
 NET CHARGE                                     0.0000

 VALENCE ORBITALS INCLUDED IN THE CRYSTAL BASIS
 NR. OF (RADIAL) CORE FUNCTIONS                 3
 Radial grid       nr of points               3000
                   range                      0.10E-05     0.10E+03
  
  ** SCF-FUNCTIONAL INFO **
    ZORA
    SCALAR
  
 Self consistent error   0.95E-09


  Orbital    Q         E(a.u.)     E(eV)           <R>
 -------------------------------------------------------------------
  1S         2.00   -101.453091      -2760.6791   0.091
  2S         2.00     -9.289636       -252.7839   0.444
  2P         6.00     -7.044018       -191.6775   0.407
  3S         2.00     -0.760399        -20.6915   1.536
  3P         5.00     -0.315848         -8.5947   1.844


 targetR   1.84381275572838      expectR   1.84381275572838      sigma
   1.63403650961974      diffuseFactor   1.00000000000000     

 NR. OF RADIAL VALENCE ORBITALS                           4
 NR. OF RADIAL CORE ORBITALS                              3
 NR. OF RADIAL FIT FUNCTIONS                              0



 ======================================================
 R A N G E S    F O R    A T O M I C    O R B I T A L S
 ======================================================
  
   --------------------------------------------------------------------------------
                            valence            core valence kinetic    core kinetic
   --------------------------------------------------------------------------------

             Cutoff       1.000E-06       1.000E-06       1.000E-06       1.000E-06
   --------------------------------------------------------------------------------
 
   --------------------------------------------------------------------------------
               Type         valence            core valence kinetic    core kinetic
   --------------------------------------------------------------------------------
                 Cs           18.36            7.31           18.81            6.95
                 Cl           14.09            4.52           14.27            4.47
   --------------------------------------------------------------------------------
 



 ====================
 R U N    C O N F I G
 ====================
  
 
 Use Symmetry  .  .  .  .  .  .  .  .  .  .  .  .  .  .  .  .  T
 Calculate gradient of basis  .  .  .  .  .  .  .  .  .  .  .  F
 Calculate sec. der. of basis .  .  .  .  .  .  .  .  .  .  .  F
 Calculate operator T working on basis .  .  .  .  .  .  .  .  T
 Calculate dk-basis  .  .  .  .  .  .  .  .  .  .  .  .  .  .  F
 Calculate gradient of fit .  .  .  .  .  .  .  .  .  .  .  .  T
 Calculate sec. der. of fit.  .  .  .  .  .  .  .  .  .  .  .  T
 Calculate gradient of fit pot.  .  .  .  .  .  .  .  .  .  .  F
 Kin. energy via grad.  .  .  .  .  .  .  .  .  .  .  .  .  .  F
 Turnover rule for xc.  .  .  .  .  .  .  .  .  .  .  .  .  .  F
 Calculate gradient of energy .  .  .  .  .  .  .  .  .  .  .  F
 Calculate analytical strain derivatives  .  .  .  .  .  .  .  F
 Calculate kin. energy density.  .  .  .  .  .  .  .  .  .  .  F
 Calculate nuc. grad of kin. energy density  .  .  .  .  .  .  F
 Calculate der. of density .  .  .  .  .  .  .  .  .  .  .  .  T
 Calculate second der. of density.  .  .  .  .  .  .  .  .  .  T
 Calculate nuc. grad. of density .  .  .  .  .  .  .  .  .  .  F
 Calculate nuc. grad. of grad. density .  .  .  .  .  .  .  .  F
 Exact rho during SCF.  .  .  .  .  .  .  .  .  .  .  .  .  .  T
 Exact grad. rho during SCF.  .  .  .  .  .  .  .  .  .  .  .  F
 Exact grad. rho post SCF  .  .  .  .  .  .  .  .  .  .  .  .  F
 Store history of dens. matrix.  .  .  .  .  .  .  .  .  .  .  T
 Store original Bloch functions  .  .  .  .  .  .  .  .  .  .  F
 Direct fit .  .  .  .  .  .  .  .  .  .  .  .  .  .  .  .  .  F
 Direct basis  .  .  .  .  .  .  .  .  .  .  .  .  .  .  .  .  T
 STO based fitting.  .  .  .  .  .  .  .  .  .  .  .  .  .  .  F
 Zlm fitting.  .  .  .  .  .  .  .  .  .  .  .  .  .  .  .  .  T
 Calculate fragment energy in mol. grid.  .  .  .  .  .  .  .  T
 Map atoms to unit cell .  .  .  .  .  .  .  .  .  .  .  .  .  T
 Print output for radial.  .  .  .  .  .  .  .  .  .  .  .  .  T
 Calculate DOS .  .  .  .  .  .  .  .  .  .  .  .  .  .  .  .  T
 Calculate population analysis.  .  .  .  .  .  .  .  .  .  .  T
 Calculate band structure  .  .  .  .  .  .  .  .  .  .  .  .  F
 Calculate EFG .  .  .  .  .  .  .  .  .  .  .  .  .  .  .  .  F
 Calculate properties.  .  .  .  .  .  .  .  .  .  .  .  .  .  T
 Calculate kinetic energy  .  .  .  .  .  .  .  .  .  .  .  .  T
 Save file tape10 .  .  .  .  .  .  .  .  .  .  .  .  .  .  .  F
 Save file Points .  .  .  .  .  .  .  .  .  .  .  .  .  .  .  F



 ==================================================
 G E O M E T R Y    I N    X - Y - Z    F O R M A T
 ==================================================
  
 Cs      1.030000000     1.030000000     1.030000000
 Cs      1.030000000     1.030000000    -3.090000000
 Cs      1.030000000    -3.090000000     1.030000000
 Cs      1.030000000    -3.090000000    -3.090000000
 Cs     -3.090000000     1.030000000     1.030000000
 Cs     -3.090000000     1.030000000    -3.090000000
 Cs     -3.090000000    -3.090000000     1.030000000
 Cs     -3.090000000    -3.090000000    -3.090000000
 Cl     -1.030000000    -1.030000000    -1.030000000
 Cl     -1.030000000    -1.030000000     3.090000000
 Cl     -1.030000000     3.090000000    -1.030000000
 Cl     -1.030000000     3.090000000     3.090000000
 Cl      3.090000000    -1.030000000    -1.030000000
 Cl      3.090000000    -1.030000000     3.090000000
 Cl      3.090000000     3.090000000    -1.030000000
 Cl      3.090000000     3.090000000     3.090000000
 VEC1     8.240000000     0.000000000     0.000000000
 VEC2     0.000000000     8.240000000     0.000000000
 VEC3     0.000000000     0.000000000     8.240000000

   Total nr. of atoms:         16





                       3 - D I M E N S I O N A L   C R Y S T A L




   REAL SPACE LATTICE VECTORS                         LENGTH
   --------------------------                         ------
   1)  15.5713432669   0.0000000000   0.0000000000    15.571
   2)   0.0000000000  15.5713432669   0.0000000000    15.571
   3)   0.0000000000   0.0000000000  15.5713432669    15.571

   ----------------------------------------
   Angles between lattice vectors
   ----------------------------------------

     pair          angle

     2 1            90.000000
     3 1            90.000000
     3 2            90.000000
 

   Volume of unit cell (a.u.):              3775.53
   Volume of unit cell (Angstrom**3):        559.48



   K-SPACE LATTICE VECTORS                            LENGTH
   -----------------------                            ------
   1)   0.4035095238   0.0000000000   0.0000000000     0.404
   2)   0.0000000000   0.4035095238   0.0000000000     0.404
   3)   0.0000000000   0.0000000000   0.4035095238     0.404


 SMALLEST INTERATOMIC DISTANCE =      6.742589420099
 BeckeGrid: periodic partition function using cells up to order            7



 ===============================
 K - S P A C E   S A M P L I N G
 ===============================
  
 Automatic Regular k-space grid for quality: NORMAL
 
    lattice-vec. size(real space)    size(k-space)   #points   delta-k
               1            15.57             0.40         3     0.202
               2            15.57             0.40         3     0.202
               3            15.57             0.40         3     0.202
 
             Total nr. of unique k-points     4




 =========
 C E L L S
 =========
  

   Nr. of cells for valence functions:        129



 ===========================
 L I N E A R   S C A L I N G
 ===========================
  
 Neglecting functions
              Valence  1.00E-06
                 Core  1.00E-06
                  Fit  0.00E+00
            Multipole  1.00E-08
   Screening function  3.16E-05



 =========================================
 N U M E R I C A L   I N T E G R A T I O N
 =========================================
  
 Becke grid quality: NORMAL         
  
 Lebedev angular grid order:             min:  11 max:  31
 Nr. of radial points:                   min:  66 max:  96

 Total nr. of points                                 430848
 Block length                                           102
 Nr. of unique blocks                                    11
 Total nr. of blocks                                   4224

 Percentage dummy points                               0.00%
 Nr. of k-points processed together in baspnt            30
 Nr. of symmetry operators (real space)                 384
 Symmetry operators in k-space                           48



 Total charge,    analytically                          576.000000000000
                  numerically                           575.994263391762
                  relative error                     -0.10E-04

 Valence density, analytically                          128.000000000000
                  numerically                           127.994296848159
                  relative error                     -0.45E-04



 INTEGRATED CHARGE PER ATOM:

  SET      TOTAL CHARGE      REL. ERROR      Valence CHARGE    REL. ERROR
 ------------------------------------------------------------------------
   1      54.9994090622      -0.107E-04      8.9994135880      -0.652E-04
   2      16.9998738618      -0.742E-05      6.9998735181      -0.181E-04

 Norms of functions from routine baspnt
 Maximum error in norms     7.680E-04 for function      133
 Minimum accuracy required  1.000E-03

 Norms of functions from routine corpnt
 Maximum error in norms     7.037E-07 for function       21
 Minimum accuracy required  1.000E-03

 Sparseness info - valence
   nr. of functions             208
   max. nr. of functions        208
   min. nr. of functions        194
   avr. nr. of functions        206
   percentage stored           99.0
 

 Sparseness info - core
   nr. of functions             224
   max. nr. of functions        116
   min. nr. of functions         45
   avr. nr. of functions         79
   percentage stored           35.3
 

 Frozen core overlap error  2.20E-06
 PrepareHam: needLdotB F



 ========================
 Density Fitting (zlmFit)
 ========================
  
 ZlmFit Fit Quality: NORMAL         
  
 Max L-expansion:                        min:   5 max:   7
 Nr. of radial interpolation points:     min:  54 max:  78
 BeckeGrid: periodic partition function using cells up to order            5
 BeckeGrid: periodic partition function using cells up to order            5



                                          *******************************
                                          *  S C F   P R O C E D U R E  *
                                          *******************************
  

 Nr. of basis functions                  208
 Nr. of core functions                   224
 Nr. of fit functions                      0
 Nr. of symmetry unique K-points           4
 Valence charge                          128.00

 CONVERGENCE REACHED



                                             *************************
                                             *  P R O P E R T I E S  *
                                             *************************
  



 ===================================
 B A N D   E N E R G Y   R A N G E S
 ===================================
  
 The energies below are in Hartree.
 =================================================
       band          min          max   occupation
 =================================================
          1     -1.03185     -1.02778      2.00000
          2     -1.03185     -1.02778      2.00000
          3     -1.02910     -1.02763      2.00000
          4     -1.02910     -1.02763      2.00000
          5     -1.02778     -1.02641      2.00000
          6     -1.02778     -1.02641      2.00000
          7     -1.02778     -1.02386      2.00000
          8     -1.02778     -1.02386      2.00000
          9     -0.76429     -0.76103      2.00000
         10     -0.76429     -0.76103      2.00000
         11     -0.76256     -0.76103      2.00000
         12     -0.76256     -0.76103      2.00000
         13     -0.76199     -0.75964      2.00000
         14     -0.76199     -0.75964      2.00000
         15     -0.76103     -0.75576      2.00000
         16     -0.76103     -0.75576      2.00000
         17     -0.56547     -0.54661      2.00000
         18     -0.56547     -0.54661      2.00000
         19     -0.56547     -0.54661      2.00000
         20     -0.56547     -0.54661      2.00000
         21     -0.56498     -0.54661      2.00000
         22     -0.56498     -0.54661      2.00000
         23     -0.56498     -0.54661      2.00000
         24     -0.56498     -0.54661      2.00000
         25     -0.54879     -0.54661      2.00000
         26     -0.54879     -0.54661      2.00000
         27     -0.54879     -0.54661      2.00000
         28     -0.54879     -0.54661      2.00000
         29     -0.54661     -0.54281      2.00000
         30     -0.54661     -0.54281      2.00000
         31     -0.54661     -0.53882      2.00000
         32     -0.54661     -0.53882      2.00000
         33     -0.54385     -0.52685      2.00000
         34     -0.54385     -0.52685      2.00000
         35     -0.54385     -0.52685      2.00000
         36     -0.54385     -0.52685      2.00000
         37     -0.54385     -0.52051      2.00000
         38     -0.54385     -0.52051      2.00000
         39     -0.54385     -0.52051      2.00000
         40     -0.54385     -0.52051      2.00000
         41     -0.34950     -0.33198      2.00000
         42     -0.34950     -0.33198      2.00000
         43     -0.34950     -0.33198      2.00000
         44     -0.34950     -0.33198      2.00000
         45     -0.34838     -0.33198      2.00000
         46     -0.34838     -0.33198      2.00000
         47     -0.34838     -0.33198      2.00000
         48     -0.34838     -0.33198      2.00000
         49     -0.34326     -0.33198      2.00000
         50     -0.34326     -0.33198      2.00000
         51     -0.34223     -0.33198      2.00000
         52     -0.34223     -0.33198      2.00000
         53     -0.33198     -0.32302      2.00000
         54     -0.33198     -0.32302      2.00000
         55     -0.33198     -0.32302      2.00000
         56     -0.33198     -0.32302      2.00000
         57     -0.33174     -0.31395      2.00000
         58     -0.33174     -0.31395      2.00000
         59     -0.33174     -0.31395      2.00000
         60     -0.33174     -0.31395      2.00000
         61     -0.33174     -0.31255      2.00000
         62     -0.33174     -0.31255      2.00000
         63     -0.33174     -0.31255      2.00000
         64     -0.33174     -0.31255      2.00000
         65     -0.10248     -0.02881      0.00000
         66     -0.10248     -0.02881      0.00000
         67     -0.10224     -0.02881      0.00000
         68     -0.10224     -0.02881      0.00000
         69     -0.08157     -0.02881      0.00000
         70     -0.08157     -0.02881      0.00000
         71     -0.08157     -0.02881      0.00000
         72     -0.08157     -0.02881      0.00000
         73     -0.06235     -0.00785      0.00000
         74     -0.06235     -0.00785      0.00000
         75     -0.04845     -0.00785      0.00000
         76     -0.04845     -0.00785      0.00000
         77     -0.04845     -0.00785      0.00000
         78     -0.04845     -0.00785      0.00000
         79     -0.03374     -0.00785      0.00000
         80     -0.03374     -0.00785      0.00000
         81     -0.01885     -0.00785      0.00000
         82     -0.01885     -0.00785      0.00000
         83     -0.00911      0.02664      0.00000
         84     -0.00911      0.02664      0.00000
         85     -0.00785      0.02664      0.00000
         86     -0.00785      0.02664      0.00000
         87     -0.00785      0.02922      0.00000
         88     -0.00785      0.02922      0.00000
         89      0.01592      0.03050      0.00000
         90      0.01592      0.03050      0.00000
         91      0.01874      0.05145      0.00000
         92      0.01874      0.05145      0.00000
         93      0.01874      0.05145      0.00000
         94      0.01874      0.05145      0.00000
         95      0.01874      0.08199      0.00000
         96      0.01874      0.08199      0.00000
         97      0.03940      0.07166      0.00000
         98      0.03940      0.07166      0.00000
         99      0.03940      0.10141      0.00000
        100      0.03940      0.10141      0.00000
        101      0.03940      0.10141      0.00000
        102      0.03940      0.10141      0.00000
        103      0.03940      0.14557      0.00000
        104      0.03940      0.14557      0.00000
        105      0.03940      0.14557      0.00000
        106      0.03940      0.14557      0.00000
        107      0.03940      0.15331      0.00000
        108      0.03940      0.15331      0.00000
        109      0.03940      0.16563      0.00000
        110      0.03940      0.16563      0.00000
        111      0.03940      0.16563      0.00000
        112      0.03940      0.16563      0.00000
        113      0.14689      0.26700      0.00000
        114      0.14689      0.26700      0.00000
        115      0.14689      0.26700      0.00000
        116      0.14689      0.26700      0.00000
        117      0.15767      0.26700      0.00000
        118      0.15767      0.26700      0.00000
        119      0.18250      0.26700      0.00000
        120      0.18250      0.26700      0.00000
        121      0.20271      0.26700      0.00000
        122      0.20271      0.26700      0.00000
        123      0.20648      0.26700      0.00000
        124      0.20648      0.26700      0.00000
        125      0.20648      0.28373      0.00000
        126      0.20648      0.28373      0.00000
        127      0.26700      0.47647      0.00000
        128      0.26700      0.47647      0.00000
        129      0.30528      0.45733      0.00000
        130      0.30528      0.45733      0.00000
        131      0.30528      0.55837      0.00000
        132      0.30528      0.55837      0.00000
        133      0.30528      0.58282      0.00000
        134      0.30528      0.58282      0.00000
        135      0.30528      0.58282      0.00000
        136      0.30528      0.58282      0.00000
        137      0.45721      0.59707      0.00000
        138      0.45722      0.59707      0.00000
        139      0.52153      0.60272      0.00000
        140      0.52153      0.60272      0.00000
        141      0.59074      0.72333      0.00000
        142      0.59074      0.72333      0.00000
        143      0.59074      0.72333      0.00000
        144      0.59074      0.72333      0.00000
        145      0.61725      0.70850      0.00000
        146      0.61725      0.70850      0.00000
        147      0.61725      0.70850      0.00000
        148      0.61725      0.70850      0.00000
        149      0.64502      0.73004      0.00000
        150      0.64502      0.73004      0.00000
        151      0.64502      0.73004      0.00000
        152      0.64502      0.73004      0.00000
        153      0.65559      0.74728      0.00000
        154      0.65559      0.74728      0.00000
        155      0.65559      0.74728      0.00000
        156      0.65559      0.74728      0.00000
        157      0.66317      0.77685      0.00000
        158      0.66317      0.77685      0.00000
        159      0.66317      0.77685      0.00000
        160      0.66317      0.77685      0.00000
        161      0.71029      0.76438      0.00000
        162      0.71029      0.76438      0.00000
        163      0.71029      0.76872      0.00000
        164      0.71029      0.76872      0.00000
        165      0.71029      0.77422      0.00000
        166      0.71029      0.77422      0.00000
        167      0.71029      0.79787      0.00000
        168      0.71029      0.79787      0.00000
 =================================================
 Final bond energy (PBE)                                      -1.86379488     -50.7164    -1169.55
 K-points configuration loaded from previous results: band-PhononsCentral.rkf



                                          *******************************
                                          *  S C F   P R O C E D U R E  *
                                          *******************************
  

 Nr. of basis functions                  208
 Nr. of core functions                   224
 Nr. of fit functions                      0
 Nr. of symmetry unique K-points           6
 Valence charge                          128.00

 CONVERGENCE REACHED



                                             *************************
                                             *  P R O P E R T I E S  *
                                             *************************
  



 ===================================
 B A N D   E N E R G Y   R A N G E S
 ===================================
  
 The energies below are in Hartree.
 =================================================
       band          min          max   occupation
 =================================================
          1     -1.03182     -1.02797      2.00000
          2     -1.03176     -1.02792      2.00000
          3     -1.02909     -1.02777      2.00000
          4     -1.02908     -1.02762      2.00000
          5     -1.02776     -1.02650      2.00000
          6     -1.02776     -1.02642      2.00000
          7     -1.02776     -1.02393      2.00000
          8     -1.02763     -1.02391      2.00000
          9     -0.76439     -0.76146      2.00000
         10     -0.76398     -0.76146      2.00000
         11     -0.76246     -0.76144      2.00000
         12     -0.76246     -0.76143      2.00000
         13     -0.76188     -0.75959      2.00000
         14     -0.76188     -0.75959      2.00000
         15     -0.76061     -0.75614      2.00000
         16     -0.76061     -0.75573      2.00000
         17     -0.56512     -0.54755      2.00000
         18     -0.56544     -0.54688      2.00000
         19     -0.56532     -0.54688      2.00000
         20     -0.56537     -0.54672      2.00000
         21     -0.56503     -0.54662      2.00000
         22     -0.56503     -0.54661      2.00000
         23     -0.56497     -0.54661      2.00000
         24     -0.56496     -0.54661      2.00000
         25     -0.54925     -0.54660      2.00000
         26     -0.54880     -0.54660      2.00000
         27     -0.54877     -0.54659      2.00000
         28     -0.54856     -0.54648      2.00000
         29     -0.54659     -0.54308      2.00000
         30     -0.54649     -0.54282      2.00000
         31     -0.54649     -0.53906      2.00000
         32     -0.54586     -0.53903      2.00000
         33     -0.54402     -0.52685      2.00000
         34     -0.54394     -0.52688      2.00000
         35     -0.54394     -0.52678      2.00000
         36     -0.54390     -0.52678      2.00000
         37     -0.54384     -0.52059      2.00000
         38     -0.54380     -0.52060      2.00000
         39     -0.54380     -0.52051      2.00000
         40     -0.54348     -0.52066      2.00000
         41     -0.34959     -0.33246      2.00000
         42     -0.34957     -0.33239      2.00000
         43     -0.34915     -0.33239      2.00000
         44     -0.34911     -0.33239      2.00000
         45     -0.34839     -0.33233      2.00000
         46     -0.34841     -0.33228      2.00000
         47     -0.34797     -0.33223      2.00000
         48     -0.34795     -0.33222      2.00000
         49     -0.34330     -0.33222      2.00000
         50     -0.34313     -0.33215      2.00000
         51     -0.34226     -0.33213      2.00000
         52     -0.34201     -0.33213      2.00000
         53     -0.33169     -0.32323      2.00000
         54     -0.33169     -0.32322      2.00000
         55     -0.33164     -0.32311      2.00000
         56     -0.33158     -0.32313      2.00000
         57     -0.33155     -0.31454      2.00000
         58     -0.33155     -0.31439      2.00000
         59     -0.33154     -0.31386      2.00000
         60     -0.33154     -0.31378      2.00000
         61     -0.33148     -0.31288      2.00000
         62     -0.33145     -0.31287      2.00000
         63     -0.33145     -0.31234      2.00000
         64     -0.33124     -0.31240      2.00000
         65     -0.10244     -0.02909      0.00000
         66     -0.10231     -0.02899      0.00000
         67     -0.10214     -0.02899      0.00000
         68     -0.10216     -0.02888      0.00000
         69     -0.08163     -0.02875      0.00000
         70     -0.08165     -0.02868      0.00000
         71     -0.08159     -0.02868      0.00000
         72     -0.08161     -0.02852      0.00000
         73     -0.06213     -0.00842      0.00000
         74     -0.06212     -0.00821      0.00000
         75     -0.04849     -0.00799      0.00000
         76     -0.04848     -0.00799      0.00000
         77     -0.04836     -0.00791      0.00000
         78     -0.04834     -0.00791      0.00000
         79     -0.03397     -0.00788      0.00000
         80     -0.03365     -0.00787      0.00000
         81     -0.01891     -0.00783      0.00000
         82     -0.01879     -0.00782      0.00000
         83     -0.00911      0.02594      0.00000
         84     -0.00910      0.02649      0.00000
         85     -0.00775      0.02667      0.00000
         86     -0.00775      0.02685      0.00000
         87     -0.00752      0.02882      0.00000
         88     -0.00712      0.02867      0.00000
         89      0.01642      0.03043      0.00000
         90      0.01681      0.03048      0.00000
         91      0.01852      0.05126      0.00000
         92      0.01873      0.05137      0.00000
         93      0.01883      0.05141      0.00000
         94      0.01896      0.05154      0.00000
         95      0.01926      0.08132      0.00000
         96      0.01926      0.08135      0.00000
         97      0.03804      0.07264      0.00000
         98      0.03804      0.07270      0.00000
         99      0.03926      0.10118      0.00000
        100      0.03929      0.10118      0.00000
        101      0.03929      0.10165      0.00000
        102      0.03929      0.10169      0.00000
        103      0.03935      0.14518      0.00000
        104      0.03939      0.14524      0.00000
        105      0.03941      0.14592      0.00000
        106      0.03941      0.14593      0.00000
        107      0.03946      0.15299      0.00000
        108      0.03946      0.15330      0.00000
        109      0.03947      0.16553      0.00000
        110      0.03956      0.16548      0.00000
        111      0.04093      0.16504      0.00000
        112      0.04093      0.16536      0.00000
        113      0.14823      0.26313      0.00000
        114      0.14721      0.26624      0.00000
        115      0.14708      0.26666      0.00000
        116      0.14749      0.26666      0.00000
        117      0.15758      0.26694      0.00000
        118      0.15775      0.26694      0.00000
        119      0.18249      0.26694      0.00000
        120      0.18318      0.26696      0.00000
        121      0.20159      0.26700      0.00000
        122      0.20306      0.26702      0.00000
        123      0.20599      0.26705      0.00000
        124      0.20624      0.26705      0.00000
        125      0.20657      0.28365      0.00000
        126      0.20776      0.28371      0.00000
        127      0.26775      0.47555      0.00000
        128      0.27067      0.47412      0.00000
        129      0.30447      0.45812      0.00000
        130      0.30521      0.45785      0.00000
        131      0.30521      0.55697      0.00000
        132      0.30522      0.55961      0.00000
        133      0.30528      0.58144      0.00000
        134      0.30529      0.58212      0.00000
        135      0.30529      0.58330      0.00000
        136      0.30629      0.58305      0.00000
        137      0.45725      0.59685      0.00000
        138      0.45732      0.59685      0.00000
        139      0.52150      0.60158      0.00000
        140      0.52201      0.60300      0.00000
        141      0.58936      0.72124      0.00000
        142      0.59001      0.72275      0.00000
        143      0.59070      0.72312      0.00000
        144      0.59070      0.72369      0.00000
        145      0.61563      0.70926      0.00000
        146      0.61588      0.70946      0.00000
        147      0.61723      0.70985      0.00000
        148      0.61729      0.70946      0.00000
        149      0.64373      0.72833      0.00000
        150      0.64382      0.72839      0.00000
        151      0.64483      0.73083      0.00000
        152      0.64560      0.73132      0.00000
        153      0.65520      0.74599      0.00000
        154      0.65552      0.74603      0.00000
        155      0.65563      0.74890      0.00000
        156      0.65563      0.74894      0.00000
        157      0.66447      0.77516      0.00000
        158      0.66536      0.77571      0.00000
        159      0.66584      0.77552      0.00000
        160      0.66584      0.77626      0.00000
        161      0.70914      0.76448      0.00000
        162      0.70914      0.76510      0.00000
        163      0.70932      0.76816      0.00000
        164      0.70935      0.76880      0.00000
        165      0.71131      0.77222      0.00000
        166      0.71155      0.77373      0.00000
        167      0.71155      0.78577      0.00000
        168      0.71166      0.79603      0.00000
 =================================================
 Final bond energy (PBE)                                      -1.86424995     -50.7288    -1169.83
 K-points configuration loaded from previous results: band-PhononsCentral.rkf



                                          *******************************
                                          *  S C F   P R O C E D U R E  *
                                          *******************************
  

 Nr. of basis functions                  208
 Nr. of core functions                   224
 Nr. of fit functions                      0
 Nr. of symmetry unique K-points           6
 Valence charge                          128.00

 CONVERGENCE REACHED



                                             *************************
                                             *  P R O P E R T I E S  *
                                             *************************
  



 ===================================
 B A N D   E N E R G Y   R A N G E S
 ===================================
  
 The energies below are in Hartree.
 =================================================
       band          min          max   occupation
 =================================================
          1     -1.03188     -1.02816      2.00000
          2     -1.03148     -1.02816      2.00000
          3     -1.02914     -1.02767      2.00000
          4     -1.02914     -1.02767      2.00000
          5     -1.02760     -1.02635      2.00000
          6     -1.02760     -1.02635      2.00000
          7     -1.02735     -1.02418      2.00000
          8     -1.02735     -1.02377      2.00000
          9     -0.76423     -0.76115      2.00000
         10     -0.76424     -0.76103      2.00000
         11     -0.76253     -0.76103      2.00000
         12     -0.76250     -0.76102      2.00000
         13     -0.76198     -0.75964      2.00000
         14     -0.76187     -0.75964      2.00000
         15     -0.76091     -0.75582      2.00000
         16     -0.76090     -0.75576      2.00000
         17     -0.56575     -0.54698      2.00000
         18     -0.56567     -0.54698      2.00000
         19     -0.56535     -0.54697      2.00000
         20     -0.56529     -0.54696      2.00000
         21     -0.56487     -0.54676      2.00000
         22     -0.56489     -0.54671      2.00000
         23     -0.56450     -0.54671      2.00000
         24     -0.56435     -0.54671      2.00000
         25     -0.54901     -0.54656      2.00000
         26     -0.54900     -0.54655      2.00000
         27     -0.54867     -0.54655      2.00000
         28     -0.54867     -0.54655      2.00000
         29     -0.54623     -0.54287      2.00000
         30     -0.54623     -0.54282      2.00000
         31     -0.54622     -0.53914      2.00000
         32     -0.54622     -0.53880      2.00000
         33     -0.54400     -0.52698      2.00000
         34     -0.54396     -0.52700      2.00000
         35     -0.54393     -0.52658      2.00000
         36     -0.54393     -0.52658      2.00000
         37     -0.54366     -0.52080      2.00000
         38     -0.54366     -0.52076      2.00000
         39     -0.54361     -0.52038      2.00000
         40     -0.54354     -0.52037      2.00000
         41     -0.34920     -0.33271      2.00000
         42     -0.34945     -0.33218      2.00000
         43     -0.34933     -0.33218      2.00000
         44     -0.34941     -0.33199      2.00000
         45     -0.34842     -0.33199      2.00000
         46     -0.34841     -0.33199      2.00000
         47     -0.34828     -0.33199      2.00000
         48     -0.34827     -0.33198      2.00000
         49     -0.34339     -0.33198      2.00000
         50     -0.34321     -0.33198      2.00000
         51     -0.34223     -0.33197      2.00000
         52     -0.34197     -0.33197      2.00000
         53     -0.33192     -0.32317      2.00000
         54     -0.33187     -0.32311      2.00000
         55     -0.33187     -0.32304      2.00000
         56     -0.33182     -0.32293      2.00000
         57     -0.33177     -0.31395      2.00000
         58     -0.33177     -0.31393      2.00000
         59     -0.33175     -0.31388      2.00000
         60     -0.33175     -0.31388      2.00000
         61     -0.33168     -0.31259      2.00000
         62     -0.33147     -0.31267      2.00000
         63     -0.33147     -0.31261      2.00000
         64     -0.33114     -0.31277      2.00000
         65     -0.10227     -0.02968      0.00000
         66     -0.10256     -0.02893      0.00000
         67     -0.10212     -0.02893      0.00000
         68     -0.10192     -0.02886      0.00000
         69     -0.08183     -0.02872      0.00000
         70     -0.08184     -0.02869      0.00000
         71     -0.08135     -0.02869      0.00000
         72     -0.08169     -0.02802      0.00000
         73     -0.06212     -0.00854      0.00000
         74     -0.06194     -0.00843      0.00000
         75     -0.04836     -0.00843      0.00000
         76     -0.04836     -0.00814      0.00000
         77     -0.04827     -0.00808      0.00000
         78     -0.04821     -0.00801      0.00000
         79     -0.03415     -0.00795      0.00000
         80     -0.03321     -0.00795      0.00000
         81     -0.01895     -0.00773      0.00000
         82     -0.01886     -0.00773      0.00000
         83     -0.00904      0.02638      0.00000
         84     -0.00904      0.02636      0.00000
         85     -0.00754      0.02660      0.00000
         86     -0.00727      0.02648      0.00000
         87     -0.00727      0.02864      0.00000
         88     -0.00708      0.02855      0.00000
         89      0.01654      0.03048      0.00000
         90      0.01658      0.03049      0.00000
         91      0.01865      0.05122      0.00000
         92      0.01868      0.05122      0.00000
         93      0.01881      0.05171      0.00000
         94      0.01884      0.05171      0.00000
         95      0.01921      0.08163      0.00000
         96      0.01921      0.08170      0.00000
         97      0.03833      0.07227      0.00000
         98      0.03833      0.07237      0.00000
         99      0.03845      0.10165      0.00000
        100      0.03919      0.10129      0.00000
        101      0.03921      0.10175      0.00000
        102      0.03925      0.10177      0.00000
        103      0.03925      0.14489      0.00000
        104      0.03929      0.14558      0.00000
[...]
             0.872873E+03             0.166165E-01             0.185742E+02            -0.347269E-01             0.598875E+01
             0.873874E+03             0.166355E-01             0.185811E+02            -0.347858E-01             0.598878E+01
             0.874875E+03             0.166545E-01             0.185879E+02            -0.348447E-01             0.598880E+01
             0.875876E+03             0.166734E-01             0.185948E+02            -0.349036E-01             0.598883E+01
             0.876877E+03             0.166924E-01             0.186016E+02            -0.349626E-01             0.598885E+01
             0.877878E+03             0.167114E-01             0.186085E+02            -0.350215E-01             0.598888E+01
             0.878879E+03             0.167304E-01             0.186153E+02            -0.350805E-01             0.598890E+01
             0.879880E+03             0.167494E-01             0.186221E+02            -0.351396E-01             0.598893E+01
             0.880881E+03             0.167684E-01             0.186289E+02            -0.351986E-01             0.598895E+01
             0.881882E+03             0.167873E-01             0.186357E+02            -0.352577E-01             0.598898E+01
             0.882883E+03             0.168063E-01             0.186425E+02            -0.353168E-01             0.598900E+01
             0.883884E+03             0.168253E-01             0.186493E+02            -0.353759E-01             0.598903E+01
             0.884885E+03             0.168443E-01             0.186561E+02            -0.354350E-01             0.598905E+01
             0.885886E+03             0.168633E-01             0.186628E+02            -0.354941E-01             0.598908E+01
             0.886887E+03             0.168823E-01             0.186696E+02            -0.355533E-01             0.598910E+01
             0.887888E+03             0.169013E-01             0.186764E+02            -0.356125E-01             0.598913E+01
             0.888889E+03             0.169202E-01             0.186831E+02            -0.356717E-01             0.598915E+01
             0.889890E+03             0.169392E-01             0.186899E+02            -0.357310E-01             0.598918E+01
             0.890891E+03             0.169582E-01             0.186966E+02            -0.357902E-01             0.598920E+01
             0.891892E+03             0.169772E-01             0.187033E+02            -0.358495E-01             0.598923E+01
             0.892893E+03             0.169962E-01             0.187100E+02            -0.359088E-01             0.598925E+01
             0.893894E+03             0.170152E-01             0.187167E+02            -0.359681E-01             0.598927E+01
             0.894895E+03             0.170342E-01             0.187234E+02            -0.360275E-01             0.598930E+01
             0.895896E+03             0.170531E-01             0.187301E+02            -0.360868E-01             0.598932E+01
             0.896897E+03             0.170721E-01             0.187368E+02            -0.361462E-01             0.598935E+01
             0.897898E+03             0.170911E-01             0.187435E+02            -0.362056E-01             0.598937E+01
             0.898899E+03             0.171101E-01             0.187502E+02            -0.362650E-01             0.598939E+01
             0.899900E+03             0.171291E-01             0.187568E+02            -0.363245E-01             0.598942E+01
             0.900901E+03             0.171481E-01             0.187635E+02            -0.363840E-01             0.598944E+01
             0.901902E+03             0.171671E-01             0.187702E+02            -0.364434E-01             0.598946E+01
             0.902903E+03             0.171860E-01             0.187768E+02            -0.365030E-01             0.598949E+01
             0.903904E+03             0.172050E-01             0.187834E+02            -0.365625E-01             0.598951E+01
             0.904905E+03             0.172240E-01             0.187901E+02            -0.366220E-01             0.598953E+01
             0.905906E+03             0.172430E-01             0.187967E+02            -0.366816E-01             0.598956E+01
             0.906907E+03             0.172620E-01             0.188033E+02            -0.367412E-01             0.598958E+01
             0.907908E+03             0.172810E-01             0.188099E+02            -0.368008E-01             0.598960E+01
             0.908909E+03             0.173000E-01             0.188165E+02            -0.368605E-01             0.598962E+01
             0.909910E+03             0.173190E-01             0.188231E+02            -0.369201E-01             0.598965E+01
             0.910911E+03             0.173379E-01             0.188297E+02            -0.369798E-01             0.598967E+01
             0.911912E+03             0.173569E-01             0.188363E+02            -0.370395E-01             0.598969E+01
             0.912913E+03             0.173759E-01             0.188428E+02            -0.370992E-01             0.598972E+01
             0.913914E+03             0.173949E-01             0.188494E+02            -0.371590E-01             0.598974E+01
             0.914915E+03             0.174139E-01             0.188560E+02            -0.372187E-01             0.598976E+01
             0.915916E+03             0.174329E-01             0.188625E+02            -0.372785E-01             0.598978E+01
             0.916917E+03             0.174519E-01             0.188691E+02            -0.373383E-01             0.598980E+01
             0.917918E+03             0.174709E-01             0.188756E+02            -0.373981E-01             0.598983E+01
             0.918919E+03             0.174898E-01             0.188821E+02            -0.374580E-01             0.598985E+01
             0.919920E+03             0.175088E-01             0.188886E+02            -0.375179E-01             0.598987E+01
             0.920921E+03             0.175278E-01             0.188952E+02            -0.375777E-01             0.598989E+01
             0.921922E+03             0.175468E-01             0.189017E+02            -0.376377E-01             0.598991E+01
             0.922923E+03             0.175658E-01             0.189082E+02            -0.376976E-01             0.598994E+01
             0.923924E+03             0.175848E-01             0.189147E+02            -0.377575E-01             0.598996E+01
             0.924925E+03             0.176038E-01             0.189211E+02            -0.378175E-01             0.598998E+01
             0.925926E+03             0.176228E-01             0.189276E+02            -0.378775E-01             0.599000E+01
             0.926927E+03             0.176417E-01             0.189341E+02            -0.379375E-01             0.599002E+01
             0.927928E+03             0.176607E-01             0.189406E+02            -0.379975E-01             0.599004E+01
             0.928929E+03             0.176797E-01             0.189470E+02            -0.380576E-01             0.599007E+01
             0.929930E+03             0.176987E-01             0.189535E+02            -0.381177E-01             0.599009E+01
             0.930931E+03             0.177177E-01             0.189599E+02            -0.381777E-01             0.599011E+01
             0.931932E+03             0.177367E-01             0.189663E+02            -0.382379E-01             0.599013E+01
             0.932933E+03             0.177557E-01             0.189728E+02            -0.382980E-01             0.599015E+01
             0.933934E+03             0.177747E-01             0.189792E+02            -0.383581E-01             0.599017E+01
             0.934935E+03             0.177937E-01             0.189856E+02            -0.384183E-01             0.599019E+01
             0.935936E+03             0.178126E-01             0.189920E+02            -0.384785E-01             0.599021E+01
             0.936937E+03             0.178316E-01             0.189984E+02            -0.385387E-01             0.599023E+01
             0.937938E+03             0.178506E-01             0.190048E+02            -0.385990E-01             0.599026E+01
             0.938939E+03             0.178696E-01             0.190112E+02            -0.386592E-01             0.599028E+01
             0.939940E+03             0.178886E-01             0.190176E+02            -0.387195E-01             0.599030E+01
             0.940941E+03             0.179076E-01             0.190240E+02            -0.387798E-01             0.599032E+01
             0.941942E+03             0.179266E-01             0.190303E+02            -0.388401E-01             0.599034E+01
             0.942943E+03             0.179456E-01             0.190367E+02            -0.389004E-01             0.599036E+01
             0.943944E+03             0.179646E-01             0.190431E+02            -0.389608E-01             0.599038E+01
             0.944945E+03             0.179835E-01             0.190494E+02            -0.390212E-01             0.599040E+01
             0.945946E+03             0.180025E-01             0.190558E+02            -0.390816E-01             0.599042E+01
             0.946947E+03             0.180215E-01             0.190621E+02            -0.391420E-01             0.599044E+01
             0.947948E+03             0.180405E-01             0.190684E+02            -0.392024E-01             0.599046E+01
             0.948949E+03             0.180595E-01             0.190747E+02            -0.392629E-01             0.599048E+01
             0.949950E+03             0.180785E-01             0.190811E+02            -0.393234E-01             0.599050E+01
             0.950951E+03             0.180975E-01             0.190874E+02            -0.393839E-01             0.599052E+01
             0.951952E+03             0.181165E-01             0.190937E+02            -0.394444E-01             0.599054E+01
             0.952953E+03             0.181355E-01             0.191000E+02            -0.395049E-01             0.599056E+01
             0.953954E+03             0.181545E-01             0.191063E+02            -0.395655E-01             0.599058E+01
             0.954955E+03             0.181734E-01             0.191125E+02            -0.396260E-01             0.599060E+01
             0.955956E+03             0.181924E-01             0.191188E+02            -0.396866E-01             0.599062E+01
             0.956957E+03             0.182114E-01             0.191251E+02            -0.397473E-01             0.599064E+01
             0.957958E+03             0.182304E-01             0.191313E+02            -0.398079E-01             0.599066E+01
             0.958959E+03             0.182494E-01             0.191376E+02            -0.398685E-01             0.599068E+01
             0.959960E+03             0.182684E-01             0.191439E+02            -0.399292E-01             0.599070E+01
             0.960961E+03             0.182874E-01             0.191501E+02            -0.399899E-01             0.599072E+01
             0.961962E+03             0.183064E-01             0.191563E+02            -0.400506E-01             0.599074E+01
             0.962963E+03             0.183254E-01             0.191626E+02            -0.401114E-01             0.599075E+01
             0.963964E+03             0.183444E-01             0.191688E+02            -0.401721E-01             0.599077E+01
             0.964965E+03             0.183633E-01             0.191750E+02            -0.402329E-01             0.599079E+01
             0.965966E+03             0.183823E-01             0.191812E+02            -0.402937E-01             0.599081E+01
             0.966967E+03             0.184013E-01             0.191874E+02            -0.403545E-01             0.599083E+01
             0.967968E+03             0.184203E-01             0.191936E+02            -0.404153E-01             0.599085E+01
             0.968969E+03             0.184393E-01             0.191998E+02            -0.404762E-01             0.599087E+01
             0.969970E+03             0.184583E-01             0.192060E+02            -0.405371E-01             0.599089E+01
             0.970971E+03             0.184773E-01             0.192122E+02            -0.405980E-01             0.599091E+01
             0.971972E+03             0.184963E-01             0.192184E+02            -0.406589E-01             0.599093E+01
             0.972973E+03             0.185153E-01             0.192245E+02            -0.407198E-01             0.599094E+01
             0.973974E+03             0.185343E-01             0.192307E+02            -0.407808E-01             0.599096E+01
             0.974975E+03             0.185533E-01             0.192368E+02            -0.408417E-01             0.599098E+01
             0.975976E+03             0.185723E-01             0.192430E+02            -0.409027E-01             0.599100E+01
             0.976977E+03             0.185912E-01             0.192491E+02            -0.409637E-01             0.599102E+01
             0.977978E+03             0.186102E-01             0.192553E+02            -0.410248E-01             0.599104E+01
             0.978979E+03             0.186292E-01             0.192614E+02            -0.410858E-01             0.599105E+01
             0.979980E+03             0.186482E-01             0.192675E+02            -0.411469E-01             0.599107E+01
             0.980981E+03             0.186672E-01             0.192736E+02            -0.412080E-01             0.599109E+01
             0.981982E+03             0.186862E-01             0.192797E+02            -0.412691E-01             0.599111E+01
             0.982983E+03             0.187052E-01             0.192858E+02            -0.413302E-01             0.599113E+01
             0.983984E+03             0.187242E-01             0.192919E+02            -0.413913E-01             0.599115E+01
             0.984985E+03             0.187432E-01             0.192980E+02            -0.414525E-01             0.599116E+01
             0.985986E+03             0.187622E-01             0.193041E+02            -0.415137E-01             0.599118E+01
             0.986987E+03             0.187812E-01             0.193102E+02            -0.415749E-01             0.599120E+01
             0.987988E+03             0.188002E-01             0.193163E+02            -0.416361E-01             0.599122E+01
             0.988989E+03             0.188191E-01             0.193223E+02            -0.416974E-01             0.599123E+01
             0.989990E+03             0.188381E-01             0.193284E+02            -0.417586E-01             0.599125E+01
             0.990991E+03             0.188571E-01             0.193344E+02            -0.418199E-01             0.599127E+01
             0.991992E+03             0.188761E-01             0.193405E+02            -0.418812E-01             0.599129E+01
             0.992993E+03             0.188951E-01             0.193465E+02            -0.419425E-01             0.599130E+01
             0.993994E+03             0.189141E-01             0.193526E+02            -0.420039E-01             0.599132E+01
             0.994995E+03             0.189331E-01             0.193586E+02            -0.420652E-01             0.599134E+01
             0.995996E+03             0.189521E-01             0.193646E+02            -0.421266E-01             0.599136E+01
             0.996997E+03             0.189711E-01             0.193707E+02            -0.421880E-01             0.599137E+01
             0.997998E+03             0.189901E-01             0.193767E+02            -0.422494E-01             0.599139E+01
             0.998999E+03             0.190091E-01             0.193827E+02            -0.423108E-01             0.599141E+01
             0.100000E+04             0.190281E-01             0.193887E+02            -0.423723E-01             0.599143E+01
=============================================================================================================================


    =====================
     CALCULATION RESULTS
    =====================

Energy (hartree)            -0.23505514

Gradients (hartree/bohr)
  Index   Atom            d/dx            d/dy            d/dz
      1     Cs    0.0000000000    0.0000000000    0.0000000000
      2     Cl   -0.0000000000   -0.0000000000   -0.0000000000

Phonon information present.

--------------
Atomic charges
--------------
  Index   Atom    Charge
      1     Cs    0.2881
      2     Cl   -0.2881




 =================
 Timing Statistics
 =================
  
 Total Used :                     CPU=      485.56      System=        6.57     Elapsed=      520.98

 Calls  Section                     ( Mean, Percentage )
 ---------------------------------------------------------------------------------------------------
     7  ><      ................      0.00    0.00             0.00    0.03             0.00    0.00
     6  GETINP  ................      0.32    0.40             0.16   14.61             0.60    0.69
    10  DIRAC   ................      0.69    1.41             0.00    0.51             0.72    1.39
    10  SLTORB  ................      0.03    0.06             0.00    0.02             0.03    0.06
    10  FITRAD  ................      0.00    0.00             0.00    0.00             0.00    0.00
     5  RADIAL  ................      0.33    0.34             0.01    0.46             0.36    0.35
     5  POINTS  ................      0.48    0.50             0.01    0.51             0.51    0.49
     5  CELLS   ................      0.18    0.18             0.00    0.22             0.19    0.18
     5  ELSTAT  ................      0.12    0.13             0.00    0.05             0.13    0.12
     5  ATMFNC  ................      0.77    0.79             0.02    1.81             0.86    0.82
     5  NUMGRD  ................      5.14    5.29             0.06    4.26             5.37    5.15
    50  RHOPSD  ................      2.37   24.45             0.02   13.09             2.49   23.86
    52  RHOFIT  ................      2.36   25.32             0.03   25.55             2.51   25.03
    52  PMATPROPS ..............      0.00    0.00             0.00    0.05             0.00    0.01
    52  RHOPOT  ................      0.07    0.74             0.01    5.59             0.08    0.81
    52  SCFEXTRA1 ..............      0.00    0.00             0.00    0.00             0.00    0.00
   104  EIGSYS  ................      1.03   22.08             0.01   15.08             1.08   21.54
    52  FERMI   ................      0.07    0.70             0.00    0.42             0.07    0.68
    47  PMATRX  ................      0.02    0.21             0.00    1.35             0.03    0.23
     2  RHOPMD  ................      0.40    0.17             0.01    0.21             0.42    0.16
    47  GUESSRHO ...............      0.03    0.29             0.00    1.55             0.03    0.31
     5  ENERGY  ................      2.73    2.81             0.04    2.72             4.22    4.05
     4  GRADIENTS ..............     16.98   13.99             0.19   11.44            18.13   13.92
     1  CHARGE  ................      0.01    0.00             0.00    0.01             0.01    0.00
     1  CM5CHARGES .............      0.01    0.00             0.00    0.01             0.01    0.00
     1  HIRSH   ................      0.00    0.00             0.00    0.00             0.00    0.00
     1  DOS     ................      0.59    0.12             0.03    0.46             0.65    0.12

AMS application finished. Exiting.
NORMAL TERMINATION
     Total cpu time:     487.21
  Total system time:       6.63
 Total elapsed time:     533.98
