                                                                                     
                             WELCOME TO ABACUS                                       
                                                                                     
               'Atomic-orbital Based Ab-initio Computation at UStc'                  
                                                                                     
                     Website: http://abacus.ustc.edu.cn/                             
                                                                                     
    Version: Parallel, in development
    Processor Number is 8
    Start Time is Tue Jul  5 15:50:47 2022
                                                                                     
 ------------------------------------------------------------------------------------

 READING GENERAL INFORMATION
                           global_out_dir = OUT.ABACUS/
                           global_in_card = INPUT
                               pseudo_dir = 
                              orbital_dir = 
                              pseudo_type = auto
                                    DRANK = 1
                                    DSIZE = 8
                                   DCOLOR = 1
                                    GRANK = 1
                                    GSIZE = 1




 >>>>>>>>>>>>>>>>>>>>>>>>>>>>>>>>>>>>>>>>>>>>>>>>>>>>>>>>>>>>>>>>>>>>>>
 |                                                                    |
 | Reading atom information in unitcell:                              |
 | From the input file and the structure file we know the number of   |
 | different elments in this unitcell, then we list the detail        |
 | information for each element, especially the zeta and polar atomic |
 | orbital number for each element. The total atom number is counted. |
 | We calculate the nearest atom distance for each atom and show the  |
 | Cartesian and Direct coordinates for each atom. We list the file   |
 | address for atomic orbitals. The volume and the lattice vectors    |
 | in real and reciprocal space is also shown.                        |
 |                                                                    |
 <<<<<<<<<<<<<<<<<<<<<<<<<<<<<<<<<<<<<<<<<<<<<<<<<<<<<<<<<<<<<<<<<<<<<<




 READING UNITCELL INFORMATION
                                    ntype = 1
                 atom label for species 1 = Si
                  lattice constant (Bohr) = 10.2
              lattice constant (Angstrom) = 5.39761

 READING ATOM TYPE 1
                               atom label = Si
                      L=0, number of zeta = 2
                      L=1, number of zeta = 2
                      L=2, number of zeta = 1
             number of atom for this type = 2
                      start magnetization = FALSE
                      start magnetization = FALSE

                        TOTAL ATOM NUMBER = 2

 CARTESIAN COORDINATES ( UNIT = 10.2 Bohr ).
         atom                   x                   y                   z                 mag                  vx                  vy                  vz
     tauc_Si1                   0                   0                   0                   0                   0                   0                   0
     tauc_Si2                0.25                0.25                0.25                   0                   0                   0                   0


 READING ORBITAL FILE NAMES FOR LCAO
 orbital file: ./Si_lda_8.0au_50Ry_2s2p1d

                          Volume (Bohr^3) = 265.302
                             Volume (A^3) = 39.3136533177

 Lattice vectors: (Cartesian coordinate: in unit of a_0)
                 +0.5                +0.5                  +0
                 +0.5                  +0                +0.5
                   +0                +0.5                +0.5
 Reciprocal vectors: (Cartesian coordinate: in unit of 2 pi/a_0)
                   +1                  +1                  -1
                   +1                  -1                  +1
                   -1                  +1                  +1




 >>>>>>>>>>>>>>>>>>>>>>>>>>>>>>>>>>>>>>>>>>>>>>>>>>>>>>>>>>>>>>>>>>>>>>
 |                                                                    |
 | Reading pseudopotentials files:                                    |
 | The pseudopotential file is in UPF format. The 'NC' indicates that |
 | the type of pseudopotential is 'norm conserving'. Functional of    |
 | exchange and correlation is decided by 4 given parameters in UPF   |
 | file.  We also read in the 'core correction' if there exists.      |
 | Also we can read the valence electrons number and the maximal      |
 | angular momentum used in this pseudopotential. We also read in the |
 | trail wave function, trail atomic density and local-pseudopotential|
 | on logrithmic grid. The non-local pseudopotential projector is also|
 | read in if there is any.                                           |
 |                                                                    |
 <<<<<<<<<<<<<<<<<<<<<<<<<<<<<<<<<<<<<<<<<<<<<<<<<<<<<<<<<<<<<<<<<<<<<<




                PAO radial cut off (Bohr) = 15

 Read in pseudopotential file is Si.pz-vbc.UPF
                     pseudopotential type = NC
          exchange-correlation functional = PZ
                 nonlocal core correction = 0
                        valence electrons = 4
                                     lmax = 1
                           number of zeta = 2
                     number of projectors = 2
                           L of projector = 0
                           L of projector = 1
     initial pseudo atomic orbital number = 8
                                   NLOCAL = 26




 >>>>>>>>>>>>>>>>>>>>>>>>>>>>>>>>>>>>>>>>>>>>>>>>>>>>>>>>>>>>>>>>>>>>>>
 |                                                                    |
 | Setup plane waves of charge/potential:                             |
 | Use the energy cutoff and the lattice vectors to generate the      |
 | dimensions of FFT grid. The number of FFT grid on each processor   |
 | is 'nrxx'. The number of plane wave basis in reciprocal space is   |
 | different for charege/potential and wave functions. We also set    |
 | the 'sticks' for the parallel of FFT. The number of plane waves    |
 | is 'npw' in each processor.                                        |
 <<<<<<<<<<<<<<<<<<<<<<<<<<<<<<<<<<<<<<<<<<<<<<<<<<<<<<<<<<<<<<<<<<<<<<





 SETUP THE PLANE WAVE BASIS
 energy cutoff for charge/potential (unit:Ry) = 200
          [fft grid for charge/potential] = 36, 36, 36
                      [fft grid division] = 2, 2, 2
      [big fft grid for charge/potential] = 18, 18, 18
                                     nbxx = 972
                                     nrxx = 7776

 SETUP PLANE WAVES FOR CHARGE/POTENTIAL
                    number of plane waves = 12627
                         number of sticks = 721

 PARALLEL PW FOR CHARGE/POTENTIAL
     PROC   COLUMNS(POT)             PW
        1             90           1579
        2             90           1579
        3             90           1578
        4             90           1578
        5             91           1579
        6             90           1578
        7             90           1578
        8             90           1578
 --------------- sum -------------------
        8            721          12627
                            number of |g| = 176
                                  max |g| = 524
                                  min |g| = 3

 SETUP THE ELECTRONS NUMBER
            electron number of element Si = 4
      total electron number of element Si = 8
                           occupied bands = 4
                                   NLOCAL = 26
                                   NBANDS = 8
                                   NBANDS = 8
 DONE : SETUP UNITCELL Time : 0.041020154953 (SEC)





 >>>>>>>>>>>>>>>>>>>>>>>>>>>>>>>>>>>>>>>>>>>>>>>>>>>>>>>>>>>>>>>>>>>>>>
 |                                                                    |
 | Setup K-points                                                     |
 | We setup the k-points according to input parameters.               |
 | The reduced k-points are set according to symmetry operations.     |
 | We treat the spin as another set of k-points.                      |
 |                                                                    |
 <<<<<<<<<<<<<<<<<<<<<<<<<<<<<<<<<<<<<<<<<<<<<<<<<<<<<<<<<<<<<<<<<<<<<<





 SETUP K-POINTS
                                    nspin = 1
                                   nkstot = 101

  KPOINTS            DIRECT_X            DIRECT_Y            DIRECT_Z              WEIGHT
        1                 0.5                   0                 0.5                   1
        2               0.475                   0               0.475                   1
        3                0.45                   0                0.45                   1
        4               0.425                   0               0.425                   1
        5                 0.4                   0                 0.4                   1
        6               0.375                   0               0.375                   1
        7                0.35                   0                0.35                   1
        8               0.325                   0               0.325                   1
        9                 0.3                   0                 0.3                   1
       10               0.275                   0               0.275                   1
       11                0.25                   0                0.25                   1
       12               0.225                   0               0.225                   1
       13                 0.2                   0                 0.2                   1
       14               0.175                   0               0.175                   1
       15                0.15                   0                0.15                   1
       16               0.125                   0               0.125                   1
       17                 0.1                   0                 0.1                   1
       18               0.075                   0               0.075                   1
       19                0.05                   0                0.05                   1
       20               0.025                   0               0.025                   1
       21                   0                   0                   0                   1
       22               0.025               0.025               0.025                   1
       23                0.05                0.05                0.05                   1
       24               0.075               0.075               0.075                   1
       25                 0.1                 0.1                 0.1                   1
       26               0.125               0.125               0.125                   1
       27                0.15                0.15                0.15                   1
       28               0.175               0.175               0.175                   1
       29                 0.2                 0.2                 0.2                   1
       30               0.225               0.225               0.225                   1
       31                0.25                0.25                0.25                   1
       32               0.275               0.275               0.275                   1
       33                 0.3                 0.3                 0.3                   1
       34               0.325               0.325               0.325                   1
       35                0.35                0.35                0.35                   1
       36               0.375               0.375               0.375                   1
       37                 0.4                 0.4                 0.4                   1
       38               0.425               0.425               0.425                   1
       39                0.45                0.45                0.45                   1
       40               0.475               0.475               0.475                   1
       41                 0.5                 0.5                 0.5                   1
       42                 0.5              0.4875              0.5125                   1
       43                 0.5               0.475               0.525                   1
       44                 0.5              0.4625              0.5375                   1
       45                 0.5                0.45                0.55                   1
       46                 0.5              0.4375              0.5625                   1
       47                 0.5               0.425               0.575                   1
       48                 0.5              0.4125              0.5875                   1
       49                 0.5                 0.4                 0.6                   1
       50                 0.5              0.3875              0.6125                   1
       51                 0.5               0.375               0.625                   1
       52                 0.5              0.3625              0.6375                   1
       53                 0.5                0.35                0.65                   1
       54                 0.5              0.3375              0.6625                   1
       55                 0.5               0.325               0.675                   1
       56                 0.5              0.3125              0.6875                   1
       57                 0.5                 0.3                 0.7                   1
       58                 0.5              0.2875              0.7125                   1
       59                 0.5               0.275               0.725                   1
       60                 0.5              0.2625              0.7375                   1
       61                 0.5                0.25                0.75                   1
       62             0.49375             0.25625                0.75                   1
       63              0.4875              0.2625                0.75                   1
       64             0.48125             0.26875                0.75                   1
       65               0.475               0.275                0.75                   1
       66             0.46875             0.28125                0.75                   1
       67              0.4625              0.2875                0.75                   1
       68             0.45625             0.29375                0.75                   1
       69                0.45                 0.3                0.75                   1
       70             0.44375             0.30625                0.75                   1
       71              0.4375              0.3125                0.75                   1
       72             0.43125             0.31875                0.75                   1
       73               0.425               0.325                0.75                   1
       74             0.41875             0.33125                0.75                   1
       75              0.4125              0.3375                0.75                   1
       76             0.40625             0.34375                0.75                   1
       77                 0.4                0.35                0.75                   1
       78             0.39375             0.35625                0.75                   1
       79              0.3875              0.3625                0.75                   1
       80             0.38125             0.36875                0.75                   1
       81               0.375               0.375                0.75                   1
       82             0.35625             0.35625              0.7125                   1
       83              0.3375              0.3375               0.675                   1
       84             0.31875             0.31875              0.6375                   1
       85                 0.3                 0.3                 0.6                   1
       86             0.28125             0.28125              0.5625                   1
       87              0.2625              0.2625               0.525                   1
       88             0.24375             0.24375              0.4875                   1
       89               0.225               0.225                0.45                   1
       90             0.20625             0.20625              0.4125                   1
       91              0.1875              0.1875               0.375                   1
       92             0.16875             0.16875              0.3375                   1
       93                0.15                0.15                 0.3                   1
       94             0.13125             0.13125              0.2625                   1
       95              0.1125              0.1125               0.225                   1
       96             0.09375             0.09375              0.1875                   1
       97               0.075               0.075                0.15                   1
       98             0.05625             0.05625              0.1125                   1
       99              0.0375              0.0375               0.075                   1
      100             0.01875             0.01875              0.0375                   1
      101                   0                   0                   0                   1

           k-point number in this process = 101
       minimum distributed K point number = 101

  KPOINTS         CARTESIAN_X         CARTESIAN_Y         CARTESIAN_Z              WEIGHT
        1                   0                   1                   0      0.019801980198
        2                   0                0.95                   0      0.019801980198
        3                   0                 0.9                   0      0.019801980198
        4                   0                0.85                   0      0.019801980198
        5                   0                 0.8                   0      0.019801980198
        6                   0                0.75                   0      0.019801980198
        7                   0                 0.7                   0      0.019801980198
        8                   0                0.65                   0      0.019801980198
        9                   0                 0.6                   0      0.019801980198
       10                   0                0.55                   0      0.019801980198
       11                   0                 0.5                   0      0.019801980198
       12                   0                0.45                   0      0.019801980198
       13                   0                 0.4                   0      0.019801980198
       14                   0                0.35                   0      0.019801980198
       15                   0                 0.3                   0      0.019801980198
       16                   0                0.25                   0      0.019801980198
       17                   0                 0.2                   0      0.019801980198
       18                   0                0.15                   0      0.019801980198
       19                   0                 0.1                   0      0.019801980198
       20                   0                0.05                   0      0.019801980198
       21                   0                   0                   0      0.019801980198
       22               0.025               0.025               0.025      0.019801980198
       23                0.05                0.05                0.05      0.019801980198
       24               0.075               0.075               0.075      0.019801980198
       25                 0.1                 0.1                 0.1      0.019801980198
       26               0.125               0.125               0.125      0.019801980198
       27                0.15                0.15                0.15      0.019801980198
       28               0.175               0.175               0.175      0.019801980198
       29                 0.2                 0.2                 0.2      0.019801980198
       30               0.225               0.225               0.225      0.019801980198
       31                0.25                0.25                0.25      0.019801980198
       32               0.275               0.275               0.275      0.019801980198
       33                 0.3                 0.3                 0.3      0.019801980198
       34               0.325               0.325               0.325      0.019801980198
       35                0.35                0.35                0.35      0.019801980198
       36               0.375               0.375               0.375      0.019801980198
       37                 0.4                 0.4                 0.4      0.019801980198
       38               0.425               0.425               0.425      0.019801980198
       39                0.45                0.45                0.45      0.019801980198
       40               0.475               0.475               0.475      0.019801980198
       41                 0.5                 0.5                 0.5      0.019801980198
       42               0.475               0.525                 0.5      0.019801980198
       43                0.45                0.55                 0.5      0.019801980198
       44               0.425               0.575                 0.5      0.019801980198
       45                 0.4                 0.6                 0.5      0.019801980198
       46               0.375               0.625                 0.5      0.019801980198
       47                0.35                0.65                 0.5      0.019801980198
       48               0.325               0.675                 0.5      0.019801980198
       49                 0.3                 0.7                 0.5      0.019801980198
       50               0.275               0.725                 0.5      0.019801980198
       51                0.25                0.75                 0.5      0.019801980198
       52               0.225               0.775                 0.5      0.019801980198
       53                 0.2                 0.8                 0.5      0.019801980198
       54               0.175               0.825                 0.5      0.019801980198
       55                0.15                0.85                 0.5      0.019801980198
       56               0.125               0.875                 0.5      0.019801980198
       57                 0.1                 0.9                 0.5      0.019801980198
       58               0.075               0.925                 0.5      0.019801980198
       59                0.05                0.95                 0.5      0.019801980198
       60               0.025               0.975                 0.5      0.019801980198
       61                   0                   1                 0.5      0.019801980198
       62                   0              0.9875              0.5125      0.019801980198
       63                   0               0.975               0.525      0.019801980198
       64                   0              0.9625              0.5375      0.019801980198
       65                   0                0.95                0.55      0.019801980198
       66                   0              0.9375              0.5625      0.019801980198
       67                   0               0.925               0.575      0.019801980198
       68                   0              0.9125              0.5875      0.019801980198
       69                   0                 0.9                 0.6      0.019801980198
       70                   0              0.8875              0.6125      0.019801980198
       71                   0               0.875               0.625      0.019801980198
       72                   0              0.8625              0.6375      0.019801980198
       73                   0                0.85                0.65      0.019801980198
       74                   0              0.8375              0.6625      0.019801980198
       75                   0               0.825               0.675      0.019801980198
       76                   0              0.8125              0.6875      0.019801980198
       77                   0                 0.8                 0.7      0.019801980198
       78                   0              0.7875              0.7125      0.019801980198
       79                   0               0.775               0.725      0.019801980198
       80                   0              0.7625              0.7375      0.019801980198
       81                   0                0.75                0.75      0.019801980198
       82                   0              0.7125              0.7125      0.019801980198
       83                   0               0.675               0.675      0.019801980198
       84                   0              0.6375              0.6375      0.019801980198
       85                   0                 0.6                 0.6      0.019801980198
       86                   0              0.5625              0.5625      0.019801980198
       87                   0               0.525               0.525      0.019801980198
       88                   0              0.4875              0.4875      0.019801980198
       89                   0                0.45                0.45      0.019801980198
       90                   0              0.4125              0.4125      0.019801980198
       91                   0               0.375               0.375      0.019801980198
       92                   0              0.3375              0.3375      0.019801980198
       93                   0                 0.3                 0.3      0.019801980198
       94                   0              0.2625              0.2625      0.019801980198
       95                   0               0.225               0.225      0.019801980198
       96                   0              0.1875              0.1875      0.019801980198
       97                   0                0.15                0.15      0.019801980198
       98                   0              0.1125              0.1125      0.019801980198
       99                   0               0.075               0.075      0.019801980198
      100                   0              0.0375              0.0375      0.019801980198
      101                   0                   0                   0      0.019801980198

  KPOINTS            DIRECT_X            DIRECT_Y            DIRECT_Z              WEIGHT
        1                 0.5                   0                 0.5      0.019801980198
        2               0.475                   0               0.475      0.019801980198
        3                0.45                   0                0.45      0.019801980198
        4               0.425                   0               0.425      0.019801980198
        5                 0.4                   0                 0.4      0.019801980198
        6               0.375                   0               0.375      0.019801980198
        7                0.35                   0                0.35      0.019801980198
        8               0.325                   0               0.325      0.019801980198
        9                 0.3                   0                 0.3      0.019801980198
       10               0.275                   0               0.275      0.019801980198
       11                0.25                   0                0.25      0.019801980198
       12               0.225                   0               0.225      0.019801980198
       13                 0.2                   0                 0.2      0.019801980198
       14               0.175                   0               0.175      0.019801980198
       15                0.15                   0                0.15      0.019801980198
       16               0.125                   0               0.125      0.019801980198
       17                 0.1                   0                 0.1      0.019801980198
       18               0.075                   0               0.075      0.019801980198
       19                0.05                   0                0.05      0.019801980198
       20               0.025                   0               0.025      0.019801980198
       21                   0                   0                   0      0.019801980198
       22               0.025               0.025               0.025      0.019801980198
       23                0.05                0.05                0.05      0.019801980198
       24               0.075               0.075               0.075      0.019801980198
       25                 0.1                 0.1                 0.1      0.019801980198
       26               0.125               0.125               0.125      0.019801980198
       27                0.15                0.15                0.15      0.019801980198
       28               0.175               0.175               0.175      0.019801980198
       29                 0.2                 0.2                 0.2      0.019801980198
       30               0.225               0.225               0.225      0.019801980198
       31                0.25                0.25                0.25      0.019801980198
       32               0.275               0.275               0.275      0.019801980198
       33                 0.3                 0.3                 0.3      0.019801980198
       34               0.325               0.325               0.325      0.019801980198
       35                0.35                0.35                0.35      0.019801980198
       36               0.375               0.375               0.375      0.019801980198
       37                 0.4                 0.4                 0.4      0.019801980198
       38               0.425               0.425               0.425      0.019801980198
       39                0.45                0.45                0.45      0.019801980198
       40               0.475               0.475               0.475      0.019801980198
       41                 0.5                 0.5                 0.5      0.019801980198
       42                 0.5              0.4875              0.5125      0.019801980198
       43                 0.5               0.475               0.525      0.019801980198
       44                 0.5              0.4625              0.5375      0.019801980198
       45                 0.5                0.45                0.55      0.019801980198
       46                 0.5              0.4375              0.5625      0.019801980198
       47                 0.5               0.425               0.575      0.019801980198
       48                 0.5              0.4125              0.5875      0.019801980198
       49                 0.5                 0.4                 0.6      0.019801980198
       50                 0.5              0.3875              0.6125      0.019801980198
       51                 0.5               0.375               0.625      0.019801980198
       52                 0.5              0.3625              0.6375      0.019801980198
       53                 0.5                0.35                0.65      0.019801980198
       54                 0.5              0.3375              0.6625      0.019801980198
       55                 0.5               0.325               0.675      0.019801980198
       56                 0.5              0.3125              0.6875      0.019801980198
       57                 0.5                 0.3                 0.7      0.019801980198
       58                 0.5              0.2875              0.7125      0.019801980198
       59                 0.5               0.275               0.725      0.019801980198
       60                 0.5              0.2625              0.7375      0.019801980198
       61                 0.5                0.25                0.75      0.019801980198
       62             0.49375             0.25625                0.75      0.019801980198
       63              0.4875              0.2625                0.75      0.019801980198
       64             0.48125             0.26875                0.75      0.019801980198
       65               0.475               0.275                0.75      0.019801980198
       66             0.46875             0.28125                0.75      0.019801980198
       67              0.4625              0.2875                0.75      0.019801980198
       68             0.45625             0.29375                0.75      0.019801980198
       69                0.45                 0.3                0.75      0.019801980198
       70             0.44375             0.30625                0.75      0.019801980198
       71              0.4375              0.3125                0.75      0.019801980198
       72             0.43125             0.31875                0.75      0.019801980198
       73               0.425               0.325                0.75      0.019801980198
       74             0.41875             0.33125                0.75      0.019801980198
       75              0.4125              0.3375                0.75      0.019801980198
       76             0.40625             0.34375                0.75      0.019801980198
       77                 0.4                0.35                0.75      0.019801980198
       78             0.39375             0.35625                0.75      0.019801980198
       79              0.3875              0.3625                0.75      0.019801980198
       80             0.38125             0.36875                0.75      0.019801980198
       81               0.375               0.375                0.75      0.019801980198
       82             0.35625             0.35625              0.7125      0.019801980198
       83              0.3375              0.3375               0.675      0.019801980198
       84             0.31875             0.31875              0.6375      0.019801980198
       85                 0.3                 0.3                 0.6      0.019801980198
       86             0.28125             0.28125              0.5625      0.019801980198
       87              0.2625              0.2625               0.525      0.019801980198
       88             0.24375             0.24375              0.4875      0.019801980198
       89               0.225               0.225                0.45      0.019801980198
       90             0.20625             0.20625              0.4125      0.019801980198
       91              0.1875              0.1875               0.375      0.019801980198
       92             0.16875             0.16875              0.3375      0.019801980198
       93                0.15                0.15                 0.3      0.019801980198
       94             0.13125             0.13125              0.2625      0.019801980198
       95              0.1125              0.1125               0.225      0.019801980198
       96             0.09375             0.09375              0.1875      0.019801980198
       97               0.075               0.075                0.15      0.019801980198
       98             0.05625             0.05625              0.1125      0.019801980198
       99              0.0375              0.0375               0.075      0.019801980198
      100             0.01875             0.01875              0.0375      0.019801980198
      101                   0                   0                   0      0.019801980198
 DONE : INIT K-POINTS Time : 0.0431950092316 (SEC)





 >>>>>>>>>>>>>>>>>>>>>>>>>>>>>>>>>>>>>>>>>>>>>>>>>>>>>>>>>>>>>>>>>>>>>>
 |                                                                    |
 | Setup plane waves of wave functions:                               |
 | Use the energy cutoff and the lattice vectors to generate the      |
 | dimensions of FFT grid. The number of FFT grid on each processor   |
 | is 'nrxx'. The number of plane wave basis in reciprocal space is   |
 | different for charege/potential and wave functions. We also set    |
 | the 'sticks' for the parallel of FFT. The number of plane wave of  |
 | each k-point is 'npwk[ik]' in each processor                       |
 <<<<<<<<<<<<<<<<<<<<<<<<<<<<<<<<<<<<<<<<<<<<<<<<<<<<<<<<<<<<<<<<<<<<<<





 SETUP PLANE WAVES FOR WAVE FUNCTIONS
     energy cutoff for wavefunc (unit:Ry) = 50
            [fft grid for wave functions] = 36, 36, 36
                    number of plane waves = 2085
                         number of sticks = 211

 PARALLEL PW FOR WAVE FUNCTIONS
     PROC   COLUMNS(POT)             PW
        1             26            260
        2             26            260
        3             26            260
        4             26            260
        5             26            260
        6             27            262
        7             27            261
        8             27            262
 --------------- sum -------------------
        8            211           2085
 DONE : INIT PLANEWAVE Time : 0.0458760261536 (SEC)

 DONE : INIT CHARGE Time : 0.04634308815 (SEC)

                                 init_chg = file
 try to start potential from file : OUT.ABACUS/SPIN1_CHG
 Find the file, try to read charge from file.
 read in fermi energy = 0.484036
 Read in the charge density: OUT.ABACUS/SPIN1_CHG
 DONE : INIT POTENTIAL Time : 0.0856221 (SEC)





 >>>>>>>>>>>>>>>>>>>>>>>>>>>>>>>>>>>>>>>>>>>>>>>>>>>>>>>>>>>>>>>>>>>>>>
 |                                                                    |
 | Setup numerical orbitals:                                          |
 | This part setup: numerical atomic orbitals, non-local projectors   |
 | and neutral potential (1D). The atomic orbitals information        |
 | including the radius, angular momentum and zeta number.            |
 | The neutral potential is the sum of local part of pseudopotential  |
 | and potential given by atomic charge, they will cancel out beyond  |
 | a certain radius cutoff, because the Z/r character.                |
 |                                                                    |
 <<<<<<<<<<<<<<<<<<<<<<<<<<<<<<<<<<<<<<<<<<<<<<<<<<<<<<<<<<<<<<<<<<<<<<





 SETUP ONE DIMENSIONAL ORBITALS/POTENTIAL
                        delta k  (1/Bohr) = 0.01
                        delta r    (Bohr) = 0.01
                        dr_uniform (Bohr) = 0.001
                        rmax       (Bohr) = 30
                                    kmesh = 711
      ORBITAL  L  N      nr      dr    RCUT  CHECK_UNIT    NEW_UNIT
            1  0  0     801    0.01       8           1           1
            2  0  1     801    0.01       8           1           1
            3  1  0     801    0.01       8           1           1
            4  1  1     801    0.01       8           1           1
            5  2  0     801    0.01       8           1           1
 SET NONLOCAL PSEUDOPOTENTIAL PROJECTORS
 max number of nonlocal projetors among all species is 2

 SETUP THE TWO-CENTER INTEGRATION TABLES

 SETUP THE DIVISION OF H/S MATRIX
 divide the H&S matrix using 2D block algorithms.
                                     nb2d = 1
                  trace_loc_row dimension = 26
                  trace_loc_col dimension = 26
                                     nloc = 91

 -------------------------------------------
 NONSELF-CONSISTENT
 -------------------------------------------




 >>>>>>>>>>>>>>>>>>>>>>>>>>>>>>>>>>>>>>>>>>>>>>>>>>>>>>>>>>>>>>>>>>>>>>
 |                                                                    |
 | Search adjacent atoms:                                             |
 | Set the adjacent atoms for each atom and set the periodic boundary |
 | condition for the atoms on real space FFT grid. For k-dependent    |
 | algorithm, we also need to set the sparse H and S matrix element   |
 | for each atom.                                                     |
 |                                                                    |
 <<<<<<<<<<<<<<<<<<<<<<<<<<<<<<<<<<<<<<<<<<<<<<<<<<<<<<<<<<<<<<<<<<<<<<





 SETUP SEARCHING RADIUS FOR PROGRAM TO SEARCH ADJACENT ATOMS
                  longest orb rcut (Bohr) = 8
   longest nonlocal projector rcut (Bohr) = 5.01
              searching radius is (Bohr)) = 26
         searching radius unit is (Bohr)) = 10.2

 SETUP EXTENDED REAL SPACE GRID FOR GRID INTEGRATION
                        [real space grid] = 36, 36, 36
               [big cell numbers in grid] = 18, 18, 18
           [meshcell numbers in big cell] = 2, 2, 2
                      [extended fft grid] = 25, 25, 25
              [dimension of extened grid] = 69, 69, 69
                            UnitCellTotal = 125
              Atom number in sub-FFT-grid = 2
    Local orbitals number in sub-FFT-grid = 26
                                ParaV.nnr = 20634
                                     nnrg = 41574
                                nnrg_last = 0
                                 nnrg_now = 41574
 Memory of pvpR : 0.317 MB
 end of band structure calculation 
 band eigenvalue in this processor (eV) :
 k-points1(101): 0 1 0
 spin1final_state 1 -1.25 0
 spin1final_state 2 -1.25 0
 spin1final_state 3 3.48 0
 spin1final_state 4 3.48 0
 spin1final_state 5 7.41 0
 spin1final_state 6 7.41 0
 spin1final_state 7 17 0
 spin1final_state 8 17 0

 k-points2(101): 0 0.95 0
 spin1final_state 1 -1.63 0
 spin1final_state 2 -0.856 0
 spin1final_state 3 3.49 0
 spin1final_state 4 3.49 0
 spin1final_state 5 7.29 0
 spin1final_state 6 7.57 0
 spin1final_state 7 16.9 0
 spin1final_state 8 16.9 0

 k-points3(101): 0 0.9 0
 spin1final_state 1 -2 0
 spin1final_state 2 -0.449 0
 spin1final_state 3 3.52 0
 spin1final_state 4 3.52 0
 spin1final_state 5 7.21 0
 spin1final_state 6 7.76 0
 spin1final_state 7 16.6 0
 spin1final_state 8 16.6 0

 k-points4(101): 0 0.85 0
 spin1final_state 1 -2.36 0
 spin1final_state 2 -0.0315 0
 spin1final_state 3 3.58 0
 spin1final_state 4 3.58 0
 spin1final_state 5 7.17 0
 spin1final_state 6 8 0
 spin1final_state 7 16.1 0
 spin1final_state 8 16.1 0

 k-points5(101): 0 0.8 0
 spin1final_state 1 -2.69 0
 spin1final_state 2 0.395 0
 spin1final_state 3 3.65 0
 spin1final_state 4 3.65 0
 spin1final_state 5 7.16 0
 spin1final_state 6 8.27 0
 spin1final_state 7 15.7 0
 spin1final_state 8 15.7 0

 k-points6(101): 0 0.75 0
 spin1final_state 1 -3.01 0
 spin1final_state 2 0.83 0
 spin1final_state 3 3.74 0
 spin1final_state 4 3.74 0
 spin1final_state 5 7.18 0
 spin1final_state 6 8.58 0
 spin1final_state 7 15.2 0
 spin1final_state 8 15.2 0

 k-points7(101): 0 0.7 0
 spin1final_state 1 -3.31 0
 spin1final_state 2 1.27 0
 spin1final_state 3 3.86 0
 spin1final_state 4 3.86 0
 spin1final_state 5 7.23 0
 spin1final_state 6 8.93 0
 spin1final_state 7 14.7 0
 spin1final_state 8 14.7 0

 k-points8(101): 0 0.65 0
 spin1final_state 1 -3.59 0
 spin1final_state 2 1.72 0
 spin1final_state 3 3.99 0
 spin1final_state 4 3.99 0
 spin1final_state 5 7.31 0
 spin1final_state 6 9.32 0
 spin1final_state 7 14.2 0
 spin1final_state 8 14.2 0

 k-points9(101): 0 0.6 0
 spin1final_state 1 -3.86 0
 spin1final_state 2 2.17 0
 spin1final_state 3 4.15 0
 spin1final_state 4 4.15 0
 spin1final_state 5 7.42 0
 spin1final_state 6 9.73 0
 spin1final_state 7 13.7 0
 spin1final_state 8 13.7 0

 k-points10(101): 0 0.55 0
 spin1final_state 1 -4.1 0
 spin1final_state 2 2.62 0
 spin1final_state 3 4.32 0
 spin1final_state 4 4.32 0
 spin1final_state 5 7.56 0
 spin1final_state 6 10.2 0
 spin1final_state 7 13.2 0
 spin1final_state 8 13.2 0

 k-points11(101): 0 0.5 0
 spin1final_state 1 -4.32 0
 spin1final_state 2 3.07 0
 spin1final_state 3 4.52 0
 spin1final_state 4 4.52 0
 spin1final_state 5 7.71 0
 spin1final_state 6 10.6 0
 spin1final_state 7 12.7 0
 spin1final_state 8 12.7 0

 k-points12(101): 0 0.45 0
 spin1final_state 1 -4.53 0
 spin1final_state 2 3.52 0
 spin1final_state 3 4.73 0
 spin1final_state 4 4.73 0
 spin1final_state 5 7.88 0
 spin1final_state 6 11 0
 spin1final_state 7 12.2 0
 spin1final_state 8 12.2 0

 k-points13(101): 0 0.4 0
 spin1final_state 1 -4.71 0
 spin1final_state 2 3.97 0
 spin1final_state 3 4.96 0
 spin1final_state 4 4.96 0
 spin1final_state 5 8.07 0
 spin1final_state 6 11.3 0
 spin1final_state 7 11.8 0
 spin1final_state 8 11.8 0

 k-points14(101): 0 0.35 0
 spin1final_state 1 -4.87 0
 spin1final_state 2 4.41 0
 spin1final_state 3 5.19 0
 spin1final_state 4 5.19 0
 spin1final_state 5 8.26 0
 spin1final_state 6 11.3 0
 spin1final_state 7 11.3 0
 spin1final_state 8 11.5 0

 k-points15(101): 0 0.3 0
 spin1final_state 1 -5.01 0
 spin1final_state 2 4.85 0
 spin1final_state 3 5.44 0
 spin1final_state 4 5.44 0
 spin1final_state 5 8.47 0
 spin1final_state 6 10.9 0
 spin1final_state 7 10.9 0
 spin1final_state 8 11.4 0

 k-points16(101): 0 0.25 0
 spin1final_state 1 -5.12 0
 spin1final_state 2 5.27 0
 spin1final_state 3 5.7 0
 spin1final_state 4 5.7 0
 spin1final_state 5 8.66 0
 spin1final_state 6 10.5 0
 spin1final_state 7 10.5 0
 spin1final_state 8 11.3 0

 k-points17(101): 0 0.2 0
 spin1final_state 1 -5.22 0
 spin1final_state 2 5.66 0
 spin1final_state 3 5.95 0
 spin1final_state 4 5.95 0
 spin1final_state 5 8.85 0
 spin1final_state 6 10.1 0
 spin1final_state 7 10.1 0
 spin1final_state 8 11 0

 k-points18(101): 0 0.15 0
 spin1final_state 1 -5.3 0
 spin1final_state 2 6.02 0
 spin1final_state 3 6.19 0
 spin1final_state 4 6.19 0
 spin1final_state 5 9.01 0
 spin1final_state 6 9.78 0
 spin1final_state 7 9.78 0
 spin1final_state 8 10.7 0

 k-points19(101): 0 0.1 0
 spin1final_state 1 -5.35 0
 spin1final_state 2 6.31 0
 spin1final_state 3 6.39 0
 spin1final_state 4 6.39 0
 spin1final_state 5 9.14 0
 spin1final_state 6 9.51 0
 spin1final_state 7 9.51 0
 spin1final_state 8 10.5 0

 k-points20(101): 0 0.05 0
 spin1final_state 1 -5.38 0
 spin1final_state 2 6.51 0
 spin1final_state 3 6.53 0
 spin1final_state 4 6.53 0
 spin1final_state 5 9.23 0
 spin1final_state 6 9.32 0
 spin1final_state 7 9.32 0
 spin1final_state 8 10.3 0

 k-points21(101): 0 0 0
 spin1final_state 1 -5.39 0
 spin1final_state 2 6.59 0
 spin1final_state 3 6.59 0
 spin1final_state 4 6.59 0
 spin1final_state 5 9.26 0
 spin1final_state 6 9.26 0
 spin1final_state 7 9.26 0
 spin1final_state 8 10.2 0

 k-points22(101): 0.025 0.025 0.025
 spin1final_state 1 -5.38 0
 spin1final_state 2 6.49 0
 spin1final_state 3 6.57 0
 spin1final_state 4 6.57 0
 spin1final_state 5 9.28 0
 spin1final_state 6 9.28 0
 spin1final_state 7 9.29 0
 spin1final_state 8 10.3 0

 k-points23(101): 0.05 0.05 0.05
 spin1final_state 1 -5.36 0
 spin1final_state 2 6.22 0
 spin1final_state 3 6.52 0
 spin1final_state 4 6.52 0
 spin1final_state 5 9.33 0
 spin1final_state 6 9.35 0
 spin1final_state 7 9.35 0
 spin1final_state 8 10.4 0

 k-points24(101): 0.075 0.075 0.075
 spin1final_state 1 -5.32 0
 spin1final_state 2 5.84 0
 spin1final_state 3 6.45 0
 spin1final_state 4 6.45 0
 spin1final_state 5 9.34 0
 spin1final_state 6 9.45 0
 spin1final_state 7 9.45 0
 spin1final_state 8 10.7 0

 k-points25(101): 0.1 0.1 0.1
 spin1final_state 1 -5.26 0
 spin1final_state 2 5.4 0
 spin1final_state 3 6.36 0
 spin1final_state 4 6.36 0
 spin1final_state 5 9.3 0
 spin1final_state 6 9.58 0
 spin1final_state 7 9.58 0
 spin1final_state 8 11.1 0

 k-points26(101): 0.125 0.125 0.125
 spin1final_state 1 -5.19 0
 spin1final_state 2 4.93 0
 spin1final_state 3 6.26 0
 spin1final_state 4 6.26 0
 spin1final_state 5 9.23 0
 spin1final_state 6 9.73 0
 spin1final_state 7 9.73 0
 spin1final_state 8 11.5 0

 k-points27(101): 0.15 0.15 0.15
 spin1final_state 1 -5.11 0
 spin1final_state 2 4.45 0
 spin1final_state 3 6.15 0
 spin1final_state 4 6.15 0
 spin1final_state 5 9.14 0
 spin1final_state 6 9.88 0
 spin1final_state 7 9.88 0
 spin1final_state 8 12 0

 k-points28(101): 0.175 0.175 0.175
 spin1final_state 1 -5 0
 spin1final_state 2 3.96 0
 spin1final_state 3 6.05 0
 spin1final_state 4 6.05 0
 spin1final_state 5 9.04 0
 spin1final_state 6 10 0
 spin1final_state 7 10 0
 spin1final_state 8 12.4 0

 k-points29(101): 0.2 0.2 0.2
 spin1final_state 1 -4.88 0
 spin1final_state 2 3.47 0
 spin1final_state 3 5.94 0
 spin1final_state 4 5.94 0
 spin1final_state 5 8.94 0
 spin1final_state 6 10.2 0
 spin1final_state 7 10.2 0
 spin1final_state 8 12.9 0

 k-points30(101): 0.225 0.225 0.225
 spin1final_state 1 -4.75 0
 spin1final_state 2 2.99 0
 spin1final_state 3 5.84 0
 spin1final_state 4 5.84 0
 spin1final_state 5 8.84 0
 spin1final_state 6 10.3 0
 spin1final_state 7 10.3 0
 spin1final_state 8 13.4 0

 k-points31(101): 0.25 0.25 0.25
 spin1final_state 1 -4.6 0
 spin1final_state 2 2.53 0
 spin1final_state 3 5.74 0
 spin1final_state 4 5.74 0
 spin1final_state 5 8.75 0
 spin1final_state 6 10.4 0
 spin1final_state 7 10.4 0
 spin1final_state 8 13.8 0

 k-points32(101): 0.275 0.275 0.275
 spin1final_state 1 -4.44 0
 spin1final_state 2 2.07 0
 spin1final_state 3 5.65 0
 spin1final_state 4 5.65 0
 spin1final_state 5 8.66 0
 spin1final_state 6 10.4 0
 spin1final_state 7 10.4 0
 spin1final_state 8 14.3 0

 k-points33(101): 0.3 0.3 0.3
 spin1final_state 1 -4.27 0
 spin1final_state 2 1.63 0
 spin1final_state 3 5.57 0
 spin1final_state 4 5.57 0
 spin1final_state 5 8.57 0
 spin1final_state 6 10.4 0
 spin1final_state 7 10.4 0
 spin1final_state 8 14.8 0

 k-points34(101): 0.325 0.325 0.325
 spin1final_state 1 -4.08 0
 spin1final_state 2 1.21 0
 spin1final_state 3 5.49 0
 spin1final_state 4 5.49 0
 spin1final_state 5 8.5 0
 spin1final_state 6 10.5 0
 spin1final_state 7 10.5 0
 spin1final_state 8 15.2 0

 k-points35(101): 0.35 0.35 0.35
 spin1final_state 1 -3.89 0
 spin1final_state 2 0.816 0
 spin1final_state 3 5.43 0
 spin1final_state 4 5.43 0
 spin1final_state 5 8.43 0
 spin1final_state 6 10.4 0
 spin1final_state 7 10.4 0
 spin1final_state 8 15.7 0

 k-points36(101): 0.375 0.375 0.375
 spin1final_state 1 -3.7 0
 spin1final_state 2 0.446 0
 spin1final_state 3 5.37 0
 spin1final_state 4 5.37 0
 spin1final_state 5 8.38 0
 spin1final_state 6 10.4 0
 spin1final_state 7 10.4 0
 spin1final_state 8 16.1 0

 k-points37(101): 0.4 0.4 0.4
 spin1final_state 1 -3.5 0
 spin1final_state 2 0.11 0
 spin1final_state 3 5.33 0
 spin1final_state 4 5.33 0
 spin1final_state 5 8.33 0
 spin1final_state 6 10.4 0
 spin1final_state 7 10.4 0
 spin1final_state 8 16.4 0

 k-points38(101): 0.425 0.425 0.425
 spin1final_state 1 -3.32 0
 spin1final_state 2 -0.183 0
 spin1final_state 3 5.29 0
 spin1final_state 4 5.29 0
 spin1final_state 5 8.3 0
 spin1final_state 6 10.4 0
 spin1final_state 7 10.4 0
 spin1final_state 8 16.7 0

 k-points39(101): 0.45 0.45 0.45
 spin1final_state 1 -3.16 0
 spin1final_state 2 -0.417 0
 spin1final_state 3 5.26 0
 spin1final_state 4 5.26 0
 spin1final_state 5 8.27 0
 spin1final_state 6 10.4 0
 spin1final_state 7 10.4 0
 spin1final_state 8 16.9 0

 k-points40(101): 0.475 0.475 0.475
 spin1final_state 1 -3.05 0
 spin1final_state 2 -0.572 0
 spin1final_state 3 5.25 0
 spin1final_state 4 5.25 0
 spin1final_state 5 8.26 0
 spin1final_state 6 10.4 0
 spin1final_state 7 10.4 0
 spin1final_state 8 17 0

 k-points41(101): 0.5 0.5 0.5
 spin1final_state 1 -3.02 0
 spin1final_state 2 -0.627 0
 spin1final_state 3 5.24 0
 spin1final_state 4 5.24 0
 spin1final_state 5 8.25 0
 spin1final_state 6 10.3 0
 spin1final_state 7 10.3 0
 spin1final_state 8 17 0

 k-points42(101): 0.475 0.525 0.5
 spin1final_state 1 -3.01 0
 spin1final_state 2 -0.624 0
 spin1final_state 3 5.19 0
 spin1final_state 4 5.23 0
 spin1final_state 5 8.3 0
 spin1final_state 6 10.3 0
 spin1final_state 7 10.4 0
 spin1final_state 8 17 0

 k-points43(101): 0.45 0.55 0.5
 spin1final_state 1 -2.99 0
 spin1final_state 2 -0.613 0
 spin1final_state 3 5.05 0
 spin1final_state 4 5.2 0
 spin1final_state 5 8.43 0
 spin1final_state 6 10.3 0
 spin1final_state 7 10.4 0
 spin1final_state 8 17 0

 k-points44(101): 0.425 0.575 0.5
 spin1final_state 1 -2.97 0
 spin1final_state 2 -0.595 0
 spin1final_state 3 4.84 0
 spin1final_state 4 5.15 0
 spin1final_state 5 8.61 0
 spin1final_state 6 10.3 0
 spin1final_state 7 10.6 0
 spin1final_state 8 16.8 0

 k-points45(101): 0.4 0.6 0.5
 spin1final_state 1 -2.93 0
 spin1final_state 2 -0.571 0
 spin1final_state 3 4.58 0
 spin1final_state 4 5.07 0
 spin1final_state 5 8.82 0
 spin1final_state 6 10.2 0
 spin1final_state 7 10.7 0
 spin1final_state 8 16.7 0

 k-points46(101): 0.375 0.625 0.5
 spin1final_state 1 -2.88 0
 spin1final_state 2 -0.541 0
 spin1final_state 3 4.3 0
 spin1final_state 4 4.97 0
 spin1final_state 5 9.03 0
 spin1final_state 6 10.2 0
 spin1final_state 7 11 0
 spin1final_state 8 16.4 0

 k-points47(101): 0.35 0.65 0.5
 spin1final_state 1 -2.82 0
 spin1final_state 2 -0.506 0
 spin1final_state 3 4.01 0
 spin1final_state 4 4.86 0
 spin1final_state 5 9.22 0
 spin1final_state 6 10.2 0
 spin1final_state 7 11.3 0
 spin1final_state 8 16.1 0

 k-points48(101): 0.325 0.675 0.5
 spin1final_state 1 -2.75 0
 spin1final_state 2 -0.468 0
 spin1final_state 3 3.72 0
 spin1final_state 4 4.72 0
 spin1final_state 5 9.4 0
 spin1final_state 6 10.1 0
 spin1final_state 7 11.7 0
 spin1final_state 8 15.8 0

 k-points49(101): 0.3 0.7 0.5
 spin1final_state 1 -2.67 0
 spin1final_state 2 -0.427 0
 spin1final_state 3 3.44 0
 spin1final_state 4 4.57 0
 spin1final_state 5 9.56 0
 spin1final_state 6 10.1 0
 spin1final_state 7 12.1 0
 spin1final_state 8 15.5 0

 k-points50(101): 0.275 0.725 0.5
 spin1final_state 1 -2.57 0
 spin1final_state 2 -0.387 0
 spin1final_state 3 3.16 0
 spin1final_state 4 4.4 0
 spin1final_state 5 9.72 0
 spin1final_state 6 10.1 0
 spin1final_state 7 12.5 0
 spin1final_state 8 15.1 0

 k-points51(101): 0.25 0.75 0.5
 spin1final_state 1 -2.47 0
 spin1final_state 2 -0.351 0
 spin1final_state 3 2.91 0
 spin1final_state 4 4.22 0
 spin1final_state 5 9.88 0
 spin1final_state 6 10.1 0
 spin1final_state 7 13 0
 spin1final_state 8 14.7 0

 k-points52(101): 0.225 0.775 0.5
 spin1final_state 1 -2.36 0
 spin1final_state 2 -0.324 0
 spin1final_state 3 2.68 0
 spin1final_state 4 4.03 0
 spin1final_state 5 10 0
 spin1final_state 6 10.2 0
 spin1final_state 7 13.4 0
 spin1final_state 8 14.4 0

 k-points53(101): 0.2 0.8 0.5
 spin1final_state 1 -2.24 0
 spin1final_state 2 -0.309 0
 spin1final_state 3 2.48 0
 spin1final_state 4 3.83 0
 spin1final_state 5 10.2 0
 spin1final_state 6 10.2 0
 spin1final_state 7 13.7 0
 spin1final_state 8 14.2 0

 k-points54(101): 0.175 0.825 0.5
 spin1final_state 1 -2.12 0
 spin1final_state 2 -0.314 0
 spin1final_state 3 2.32 0
 spin1final_state 4 3.63 0
 spin1final_state 5 10.3 0
 spin1final_state 6 10.4 0
 spin1final_state 7 13.5 0
 spin1final_state 8 13.8 0

 k-points55(101): 0.15 0.85 0.5
 spin1final_state 1 -1.98 0
 spin1final_state 2 -0.343 0
 spin1final_state 3 2.2 0
 spin1final_state 4 3.44 0
 spin1final_state 5 10.4 0
 spin1final_state 6 10.5 0
 spin1final_state 7 13.2 0
 spin1final_state 8 13.5 0

 k-points56(101): 0.125 0.875 0.5
 spin1final_state 1 -1.83 0
 spin1final_state 2 -0.401 0
 spin1final_state 3 2.12 0
 spin1final_state 4 3.24 0
 spin1final_state 5 10.6 0
 spin1final_state 6 10.7 0
 spin1final_state 7 12.9 0
 spin1final_state 8 13.2 0

 k-points57(101): 0.1 0.9 0.5
 spin1final_state 1 -1.68 0
 spin1final_state 2 -0.488 0
 spin1final_state 3 2.1 0
 spin1final_state 4 3.05 0
 spin1final_state 5 10.7 0
 spin1final_state 6 10.9 0
 spin1final_state 7 12.6 0
 spin1final_state 8 12.9 0

 k-points58(101): 0.075 0.925 0.5
 spin1final_state 1 -1.53 0
 spin1final_state 2 -0.601 0
 spin1final_state 3 2.12 0
 spin1final_state 4 2.86 0
 spin1final_state 5 10.9 0
 spin1final_state 6 11.1 0
 spin1final_state 7 12.3 0
 spin1final_state 8 12.7 0

 k-points59(101): 0.05 0.95 0.5
 spin1final_state 1 -1.36 0
 spin1final_state 2 -0.734 0
 spin1final_state 3 2.18 0
 spin1final_state 4 2.69 0
 spin1final_state 5 11 0
 spin1final_state 6 11.3 0
 spin1final_state 7 12.1 0
 spin1final_state 8 12.4 0

 k-points60(101): 0.025 0.975 0.5
 spin1final_state 1 -1.2 0
 spin1final_state 2 -0.882 0
 spin1final_state 3 2.27 0
 spin1final_state 4 2.53 0
 spin1final_state 5 11.2 0
 spin1final_state 6 11.4 0
 spin1final_state 7 11.9 0
 spin1final_state 8 12.2 0

 k-points61(101): 0 1 0.5
 spin1final_state 1 -1.04 0
 spin1final_state 2 -1.04 0
 spin1final_state 3 2.39 0
 spin1final_state 4 2.39 0
 spin1final_state 5 11.4 0
 spin1final_state 6 11.4 0
 spin1final_state 7 12 0
 spin1final_state 8 12 0

 k-points62(101): 0 0.988 0.512
 spin1final_state 1 -1.1 0
 spin1final_state 2 -0.986 0
 spin1final_state 3 2.35 0
 spin1final_state 4 2.44 0
 spin1final_state 5 11.3 0
 spin1final_state 6 11.4 0
 spin1final_state 7 12 0
 spin1final_state 8 12 0

 k-points63(101): 0 0.975 0.525
 spin1final_state 1 -1.15 0
 spin1final_state 2 -0.937 0
 spin1final_state 3 2.3 0
 spin1final_state 4 2.5 0
 spin1final_state 5 11 0
 spin1final_state 6 11.4 0
 spin1final_state 7 12.1 0
 spin1final_state 8 12.1 0

 k-points64(101): 0 0.963 0.537
 spin1final_state 1 -1.2 0
 spin1final_state 2 -0.894 0
 spin1final_state 3 2.26 0
 spin1final_state 4 2.57 0
 spin1final_state 5 10.8 0
 spin1final_state 6 11.4 0
 spin1final_state 7 12.2 0
 spin1final_state 8 12.3 0

 k-points65(101): 0 0.95 0.55
 spin1final_state 1 -1.24 0
 spin1final_state 2 -0.855 0
 spin1final_state 3 2.22 0
 spin1final_state 4 2.65 0
 spin1final_state 5 10.6 0
 spin1final_state 6 11.4 0
 spin1final_state 7 12.4 0
 spin1final_state 8 12.5 0

 k-points66(101): 0 0.938 0.562
 spin1final_state 1 -1.29 0
 spin1final_state 2 -0.822 0
 spin1final_state 3 2.18 0
 spin1final_state 4 2.73 0
 spin1final_state 5 10.3 0
 spin1final_state 6 11.4 0
 spin1final_state 7 12.5 0
 spin1final_state 8 12.7 0

 k-points67(101): 0 0.925 0.575
 spin1final_state 1 -1.33 0
 spin1final_state 2 -0.793 0
 spin1final_state 3 2.15 0
 spin1final_state 4 2.82 0
 spin1final_state 5 10.1 0
 spin1final_state 6 11.4 0
 spin1final_state 7 12.6 0
 spin1final_state 8 12.9 0

 k-points68(101): 0 0.912 0.588
 spin1final_state 1 -1.37 0
 spin1final_state 2 -0.768 0
 spin1final_state 3 2.12 0
 spin1final_state 4 2.91 0
 spin1final_state 5 9.82 0
 spin1final_state 6 11.3 0
 spin1final_state 7 12.8 0
 spin1final_state 8 13.1 0

 k-points69(101): 0 0.9 0.6
 spin1final_state 1 -1.4 0
 spin1final_state 2 -0.746 0
 spin1final_state 3 2.09 0
 spin1final_state 4 3.01 0
 spin1final_state 5 9.59 0
 spin1final_state 6 11.3 0
 spin1final_state 7 12.9 0
 spin1final_state 8 13.3 0

 k-points70(101): 0 0.887 0.613
 spin1final_state 1 -1.44 0
 spin1final_state 2 -0.729 0
 spin1final_state 3 2.06 0
 spin1final_state 4 3.12 0
 spin1final_state 5 9.37 0
 spin1final_state 6 11.3 0
 spin1final_state 7 13.1 0
 spin1final_state 8 13.5 0

 k-points71(101): 0 0.875 0.625
 spin1final_state 1 -1.47 0
 spin1final_state 2 -0.714 0
 spin1final_state 3 2.03 0
 spin1final_state 4 3.22 0
 spin1final_state 5 9.15 0
 spin1final_state 6 11.3 0
 spin1final_state 7 13.2 0
 spin1final_state 8 13.7 0

 k-points72(101): 0 0.863 0.637
 spin1final_state 1 -1.5 0
 spin1final_state 2 -0.701 0
 spin1final_state 3 2.01 0
 spin1final_state 4 3.33 0
 spin1final_state 5 8.95 0
 spin1final_state 6 11.3 0
 spin1final_state 7 13.4 0
 spin1final_state 8 13.9 0

 k-points73(101): 0 0.85 0.65
 spin1final_state 1 -1.52 0
 spin1final_state 2 -0.691 0
 spin1final_state 3 1.99 0
 spin1final_state 4 3.43 0
 spin1final_state 5 8.76 0
 spin1final_state 6 11.2 0
 spin1final_state 7 13.6 0
 spin1final_state 8 14.1 0

 k-points74(101): 0 0.838 0.662
 spin1final_state 1 -1.54 0
 spin1final_state 2 -0.683 0
 spin1final_state 3 1.97 0
 spin1final_state 4 3.53 0
 spin1final_state 5 8.58 0
 spin1final_state 6 11.2 0
 spin1final_state 7 13.7 0
 spin1final_state 8 14.3 0

 k-points75(101): 0 0.825 0.675
 spin1final_state 1 -1.56 0
 spin1final_state 2 -0.677 0
 spin1final_state 3 1.96 0
 spin1final_state 4 3.63 0
 spin1final_state 5 8.42 0
 spin1final_state 6 11.2 0
 spin1final_state 7 13.9 0
 spin1final_state 8 14.5 0

 k-points76(101): 0 0.812 0.688
 spin1final_state 1 -1.58 0
 spin1final_state 2 -0.672 0
 spin1final_state 3 1.94 0
 spin1final_state 4 3.71 0
 spin1final_state 5 8.28 0
 spin1final_state 6 11.2 0
 spin1final_state 7 14 0
 spin1final_state 8 14.7 0

 k-points77(101): 0 0.8 0.7
 spin1final_state 1 -1.59 0
 spin1final_state 2 -0.668 0
 spin1final_state 3 1.93 0
 spin1final_state 4 3.79 0
 spin1final_state 5 8.16 0
 spin1final_state 6 11.2 0
 spin1final_state 7 14.2 0
 spin1final_state 8 14.9 0

 k-points78(101): 0 0.787 0.713
 spin1final_state 1 -1.6 0
 spin1final_state 2 -0.665 0
 spin1final_state 3 1.92 0
 spin1final_state 4 3.85 0
 spin1final_state 5 8.06 0
 spin1final_state 6 11.2 0
 spin1final_state 7 14.3 0
 spin1final_state 8 15.1 0

 k-points79(101): 0 0.775 0.725
 spin1final_state 1 -1.61 0
 spin1final_state 2 -0.663 0
 spin1final_state 3 1.92 0
 spin1final_state 4 3.9 0
 spin1final_state 5 7.99 0
 spin1final_state 6 11.2 0
 spin1final_state 7 14.4 0
 spin1final_state 8 15.2 0

 k-points80(101): 0 0.762 0.738
 spin1final_state 1 -1.61 0
 spin1final_state 2 -0.662 0
 spin1final_state 3 1.91 0
 spin1final_state 4 3.93 0
 spin1final_state 5 7.94 0
 spin1final_state 6 11.2 0
 spin1final_state 7 14.5 0
 spin1final_state 8 15.3 0

 k-points81(101): 0 0.75 0.75
 spin1final_state 1 -1.61 0
 spin1final_state 2 -0.662 0
 spin1final_state 3 1.91 0
 spin1final_state 4 3.94 0
 spin1final_state 5 7.93 0
 spin1final_state 6 11.2 0
 spin1final_state 7 14.5 0
 spin1final_state 8 15.3 0

 k-points82(101): 0 0.713 0.713
 spin1final_state 1 -1.8 0
 spin1final_state 2 -0.473 0
 spin1final_state 3 1.81 0
 spin1final_state 4 4.08 0
 spin1final_state 5 8.1 0
 spin1final_state 6 12 0
 spin1final_state 7 14.1 0
 spin1final_state 8 14.8 0

 k-points83(101): 0 0.675 0.675
 spin1final_state 1 -2.03 0
 spin1final_state 2 -0.259 0
 spin1final_state 3 1.79 0
 spin1final_state 4 4.24 0
 spin1final_state 5 8.28 0
 spin1final_state 6 12.9 0
 spin1final_state 7 13.6 0
 spin1final_state 8 14.3 0

 k-points84(101): 0 0.637 0.637
 spin1final_state 1 -2.29 0
 spin1final_state 2 -0.0212 0
 spin1final_state 3 1.85 0
 spin1final_state 4 4.41 0
 spin1final_state 5 8.48 0
 spin1final_state 6 13.1 0
 spin1final_state 7 13.6 0
 spin1final_state 8 14 0

 k-points85(101): 0 0.6 0.6
 spin1final_state 1 -2.57 0
 spin1final_state 2 0.241 0
 spin1final_state 3 1.97 0
 spin1final_state 4 4.59 0
 spin1final_state 5 8.7 0
 spin1final_state 6 12.7 0
 spin1final_state 7 13.2 0
 spin1final_state 8 14.1 0

 k-points86(101): 0 0.562 0.562
 spin1final_state 1 -2.87 0
 spin1final_state 2 0.528 0
 spin1final_state 3 2.14 0
 spin1final_state 4 4.78 0
 spin1final_state 5 8.92 0
 spin1final_state 6 12.3 0
 spin1final_state 7 12.8 0
 spin1final_state 8 13.8 0

 k-points87(101): 0 0.525 0.525
 spin1final_state 1 -3.16 0
 spin1final_state 2 0.838 0
 spin1final_state 3 2.36 0
 spin1final_state 4 4.98 0
 spin1final_state 5 9.14 0
 spin1final_state 6 11.9 0
 spin1final_state 7 12.4 0
 spin1final_state 8 13.6 0

 k-points88(101): 0 0.487 0.487
 spin1final_state 1 -3.44 0
 spin1final_state 2 1.17 0
 spin1final_state 3 2.62 0
 spin1final_state 4 5.18 0
 spin1final_state 5 9.34 0
 spin1final_state 6 11.6 0
 spin1final_state 7 12 0
 spin1final_state 8 13.4 0

 k-points89(101): 0 0.45 0.45
 spin1final_state 1 -3.72 0
 spin1final_state 2 1.53 0
 spin1final_state 3 2.91 0
 spin1final_state 4 5.38 0
 spin1final_state 5 9.52 0
 spin1final_state 6 11.2 0
 spin1final_state 7 11.6 0
 spin1final_state 8 13.3 0

 k-points90(101): 0 0.413 0.413
 spin1final_state 1 -3.97 0
 spin1final_state 2 1.92 0
 spin1final_state 3 3.22 0
 spin1final_state 4 5.58 0
 spin1final_state 5 9.66 0
 spin1final_state 6 10.9 0
 spin1final_state 7 11.3 0
 spin1final_state 8 13.2 0

 k-points91(101): 0 0.375 0.375
 spin1final_state 1 -4.21 0
 spin1final_state 2 2.33 0
 spin1final_state 3 3.56 0
 spin1final_state 4 5.76 0
 spin1final_state 5 9.76 0
 spin1final_state 6 10.6 0
 spin1final_state 7 11 0
 spin1final_state 8 13.2 0

 k-points92(101): 0 0.338 0.338
 spin1final_state 1 -4.43 0
 spin1final_state 2 2.76 0
 spin1final_state 3 3.92 0
 spin1final_state 4 5.93 0
 spin1final_state 5 9.81 0
 spin1final_state 6 10.4 0
 spin1final_state 7 10.7 0
 spin1final_state 8 13.1 0

 k-points93(101): 0 0.3 0.3
 spin1final_state 1 -4.63 0
 spin1final_state 2 3.21 0
 spin1final_state 3 4.3 0
 spin1final_state 4 6.08 0
 spin1final_state 5 9.83 0
 spin1final_state 6 10.2 0
 spin1final_state 7 10.4 0
 spin1final_state 8 13 0

 k-points94(101): 0 0.263 0.263
 spin1final_state 1 -4.81 0
 spin1final_state 2 3.69 0
 spin1final_state 3 4.68 0
 spin1final_state 4 6.21 0
 spin1final_state 5 9.81 0
 spin1final_state 6 9.95 0
 spin1final_state 7 10.2 0
 spin1final_state 8 12.7 0

 k-points95(101): 0 0.225 0.225
 spin1final_state 1 -4.96 0
 spin1final_state 2 4.18 0
 spin1final_state 3 5.06 0
 spin1final_state 4 6.32 0
 spin1final_state 5 9.77 0
 spin1final_state 6 9.77 0
 spin1final_state 7 9.99 0
 spin1final_state 8 12.4 0

 k-points96(101): 0 0.188 0.188
 spin1final_state 1 -5.09 0
 spin1final_state 2 4.68 0
 spin1final_state 3 5.44 0
 spin1final_state 4 6.41 0
 spin1final_state 5 9.61 0
 spin1final_state 6 9.72 0
 spin1final_state 7 9.8 0
 spin1final_state 8 11.9 0

 k-points97(101): 0 0.15 0.15
 spin1final_state 1 -5.2 0
 spin1final_state 2 5.19 0
 spin1final_state 3 5.79 0
 spin1final_state 4 6.47 0
 spin1final_state 5 9.49 0
 spin1final_state 6 9.63 0
 spin1final_state 7 9.65 0
 spin1final_state 8 11.4 0

 k-points98(101): 0 0.113 0.113
 spin1final_state 1 -5.28 0
 spin1final_state 2 5.68 0
 spin1final_state 3 6.1 0
 spin1final_state 4 6.52 0
 spin1final_state 5 9.39 0
 spin1final_state 6 9.48 0
 spin1final_state 7 9.57 0
 spin1final_state 8 10.9 0

 k-points99(101): 0 0.075 0.075
 spin1final_state 1 -5.34 0
 spin1final_state 2 6.12 0
 spin1final_state 3 6.36 0
 spin1final_state 4 6.56 0
 spin1final_state 5 9.32 0
 spin1final_state 6 9.36 0
 spin1final_state 7 9.46 0
 spin1final_state 8 10.5 0

 k-points100(101): 0 0.0375 0.0375
 spin1final_state 1 -5.38 0
 spin1final_state 2 6.46 0
 spin1final_state 3 6.53 0
 spin1final_state 4 6.58 0
 spin1final_state 5 9.27 0
 spin1final_state 6 9.29 0
 spin1final_state 7 9.33 0
 spin1final_state 8 10.3 0

 k-points101(101): 0 0 0
 spin1final_state 1 -5.39 0
 spin1final_state 2 6.59 0
 spin1final_state 3 6.59 0
 spin1final_state 4 6.59 0
 spin1final_state 5 9.26 0
 spin1final_state 6 9.26 0
 spin1final_state 7 9.26 0
 spin1final_state 8 10.2 0





 >>>>>>>>>>>>>>>>>>>>>>>>>>>>>>>>>>>>>>>>>>>>>>>>>>>>>>>>>>>>>>>>>>>>>>
 |                                                                    |
 | Post-processing of data:                                           |
 | DOS (density of states) and bands will be output here.             |
 | If atomic orbitals are used, Mulliken charge analysis can be done. |
 | Also the .bxsf file containing fermi surface information can be    |
 | done here.                                                         |
 |                                                                    |
 <<<<<<<<<<<<<<<<<<<<<<<<<<<<<<<<<<<<<<<<<<<<<<<<<<<<<<<<<<<<<<<<<<<<<<





 Output bands in file: OUT.ABACUS/BANDS_1.dat




  |CLASS_NAME---------|NAME---------------|TIME(Sec)-----|CALLS----|AVG------|PER%-------
                                      total         1.4856        11      0.14     1e+02%
               Run_lcao           lcao_line         1.4625         1       1.5        98%
            ORB_control      set_orb_tables        0.55449         1      0.55        37%
         ORB_gen_tables          gen_tables        0.55448         1      0.55        37%
          ORB_table_phi          init_Table         0.3421         1      0.34        23%
          ORB_table_phi      cal_ST_Phi12_R        0.33765        70    0.0048        23%
              LOOP_ions            opt_ions        0.79948         1       0.8        54%
        ESolver_KS_LCAO    othercalculation        0.75899         1      0.76        51%
            HSolverLCAO               solve        0.65877         1      0.66        44%
             HamiltLCAO              each_k        0.23391       101    0.0023        16%
         Gint_interface            cal_gint        0.23198         1      0.23        16%
             HamiltLCAO                 H_k        0.21472        51    0.0042        14%
            LCAO_Hamilt        calculate_Hk        0.21798       101    0.0022        15%
               LCAO_nnr      folding_fixedH        0.19123       101    0.0019        13%
             Efficience                 H_k        0.21486        51    0.0042        14%
              DiagoElpa          elpa_solve        0.20541       101     0.002        14%
 ----------------------------------------------------------------------------------------

 CLASS_NAME---------|NAME---------------|MEMORY(MB)--------
                                         266.6
        ORB_table_phi               Jl(x)           97.8
        init_meshball        meshball_pos          1.337
        Grid_Meshcell        index2normal          1.253
        Grid_Meshcell         index2ucell          1.253
        ORB_table_phi         Table_SR&TR          1.225
 ----------------------------------------------------------

 Start  Time  : Tue Jul  5 15:50:47 2022
 Finish Time  : Tue Jul  5 15:50:49 2022
 Total  Time  : 0 h 0 mins 2 secs 
