# Projected DOS for atomic kind H at iteration step i = 36, E(Fermi) =    -0.147424 a.u.
#     MO Eigenvalue [a.u.]      Occupation                 s                py                pz                px
       1         -0.850213        1.000000        0.00194496        0.00002891        0.00133506        0.00003057
       2         -0.847833        1.000000        0.00013366        0.00006671        0.00011211        0.00016253
       3         -0.847829        1.000000        0.00008195        0.00003573        0.00006866        0.00010874
       4         -0.847171        1.000000        0.00081274        0.00024737        0.00065005        0.00073611
       5         -0.847064        1.000000        0.00476116        0.00055138        0.00343006        0.00020705
       6         -0.845697        1.000000        0.01211897        0.00032236        0.00852651        0.00018746
       7         -0.844726        1.000000        0.02036090        0.00013154        0.01412310        0.00020527
       8         -0.841062        1.000000        0.00267795        0.00023117        0.00193751        0.00011950
       9         -0.841021        1.000000        0.00192788        0.00037405        0.00146615        0.00015116
      10         -0.840701        1.000000        0.00109053        0.00036445        0.00088627        0.00085267
      11         -0.840394        1.000000        0.00215363        0.00070846        0.00179893        0.00198402
      12         -0.840056        1.000000        0.01077700        0.00075347        0.00775597        0.00034178
      13         -0.839362        1.000000        0.02779869        0.00075981        0.02032147        0.00040229
      14         -0.837739        1.000000        0.00077739        0.00032853        0.00066219        0.00075714
      15         -0.837697        1.000000        0.00055631        0.00028753        0.00047916        0.00059156
      16         -0.836883        1.000000        0.00669917        0.00098838        0.00524619        0.00289181
      17         -0.836085        1.000000        0.04028475        0.00039632        0.02930254        0.00082994
      18         -0.835561        1.000000        0.02808267        0.00269816        0.02124236        0.00105289
      19         -0.835553        1.000000        0.02447722        0.00347142        0.01842217        0.00133800
      20         -0.828741        1.000000        0.00003943        0.00004007        0.00003546        0.00005470
      21         -0.828712        1.000000        0.00007894        0.00004776        0.00007346        0.00010309
      22         -0.828011        1.000000        0.00759238        0.00039415        0.00584992        0.00057561
      23         -0.827970        1.000000        0.00368587        0.00122699        0.00302375        0.00065578
      24         -0.827918        1.000000        0.00333757        0.00043813        0.00268163        0.00116217
      25         -0.827637        1.000000        0.00147131        0.00076581        0.00136925        0.00174492
      26         -0.826767        1.000000        0.02002457        0.00217824        0.01583388        0.00172811
      27         -0.826624        1.000000        0.02565796        0.00173106        0.01997923        0.00193366
      28         -0.826507        1.000000        0.00538065        0.00197448        0.00465414        0.00327684
      29         -0.826353        1.000000        0.00848270        0.00227744        0.00717659        0.00351791
      30         -0.825845        1.000000        0.02245938        0.00327954        0.01779572        0.00175432
      31         -0.825765        1.000000        0.02433079        0.00345553        0.01922918        0.00268166
      32         -0.821116        1.000000        0.00156886        0.00077903        0.00141827        0.00130126
      33         -0.820971        1.000000        0.00133918        0.00076327        0.00122343        0.00120623
      34         -0.820803        1.000000        0.01905512        0.00062306        0.01485341        0.00175889
      35         -0.820177        1.000000        0.00615825        0.00186166        0.00560612        0.00527000
      36         -0.819761        1.000000        0.02628034        0.00617761        0.02180452        0.00226858
      37         -0.819534        1.000000        0.02277856        0.00711228        0.01919797        0.00262689
      38         -0.811807        1.000000        0.00106313        0.00054900        0.00093647        0.00022266
      39         -0.811771        1.000000        0.00100825        0.00046656        0.00089767        0.00017908
      40         -0.811304        1.000000        0.01300675        0.00149570        0.01071371        0.00153828
      41         -0.811104        1.000000        0.00448423        0.00127226        0.00388657        0.00165341
      42         -0.811077        1.000000        0.00676178        0.00157525        0.00570742        0.00157115
      43         -0.810753        1.000000        0.00353390        0.00128331        0.00336438        0.00324633
      44         -0.808642        1.000000        0.00035937        0.00028146        0.00033507        0.00037581
      45         -0.808570        1.000000        0.00061755        0.00034400        0.00059481        0.00062525
      46         -0.807929        1.000000        0.01289641        0.00171822        0.01057440        0.00226519
      47         -0.807858        1.000000        0.01707204        0.00292286        0.01448796        0.00186273
      48         -0.807720        1.000000        0.00948705        0.00352339        0.00820177        0.00194315
      49         -0.807675        1.000000        0.01471783        0.00167667        0.01198481        0.00291071
      50         -0.807332        1.000000        0.00583728        0.00190461        0.00547382        0.00445137
      51         -0.807273        1.000000        0.00443507        0.00209489        0.00419228        0.00372402
      52         -0.807172        1.000000        0.00414088        0.00217337        0.00390628        0.00333707
      53         -0.806689        1.000000        0.00860958        0.00253013        0.00814948        0.00671695
      54         -0.806028        1.000000        0.01997704        0.00732905        0.01757702        0.00280132
      55         -0.805809        1.000000        0.01730749        0.00735400        0.01541330        0.00281058
      56         -0.798131        1.000000        0.00432592        0.00139566        0.00377303        0.00198216
      57         -0.798025        1.000000        0.00702453        0.00103547        0.00574517        0.00274510
      58         -0.797872        1.000000        0.00251684        0.00143526        0.00238467        0.00167191
      59         -0.797465        1.000000        0.01274391        0.00471634        0.01156137        0.00387669
      60         -0.797375        1.000000        0.01052325        0.00397506        0.00961000        0.00376669
      61         -0.797178        1.000000        0.01784193        0.00741413        0.01615842        0.00281391
      62         -0.789830        1.000000        0.00005680        0.00004510        0.00005430        0.00005633
      63         -0.789770        1.000000        0.00004440        0.00004458        0.00004200        0.00004966
      64         -0.789085        1.000000        0.00177578        0.00081386        0.00165431        0.00121122
      65         -0.788957        1.000000        0.00570710        0.00106369        0.00487177        0.00168649
      66         -0.788840        1.000000        0.00381306        0.00133841        0.00329483        0.00105982
      67         -0.788552        1.000000        0.00287506        0.00104975        0.00281485        0.00230154
      68         -0.787837        1.000000        0.01162556        0.00276630        0.00992046        0.00358991
      69         -0.787822        1.000000        0.01126165        0.00318211        0.00965018        0.00343740
      70         -0.787459        1.000000        0.00504779        0.00261979        0.00464825        0.00101506
      71         -0.787358        1.000000        0.00407724        0.00261433        0.00373946        0.00098938
      72         -0.786949        1.000000        0.00841291        0.00291253        0.00798484        0.00533869
      73         -0.786879        1.000000        0.00838913        0.00298861        0.00804334        0.00566023
      74         -0.782568        1.000000        0.00149553        0.00065758        0.00139671        0.00101625
      75         -0.782261        1.000000        0.00072560        0.00056792        0.00067808        0.00062200
      76         -0.782131        1.000000        0.00818623        0.00267451        0.00713523        0.00194842
      77         -0.781911        1.000000        0.00808448        0.00353603        0.00727511        0.00183861
      78         -0.781888        1.000000        0.00497773        0.00130586        0.00432146        0.00272225
      79         -0.781644        1.000000        0.00538435        0.00134891        0.00487001        0.00289713
      80         -0.781580        1.000000        0.00741609        0.00153349        0.00610911        0.00427919
      81         -0.781112        1.000000        0.00495413        0.00246855        0.00467387        0.00302531
      82         -0.781078        1.000000        0.00779753        0.00215133        0.00733772        0.00434084
      83         -0.781002        1.000000        0.00709999        0.00254198        0.00665387        0.00394572
      84         -0.780090        1.000000        0.01639502        0.00927925        0.01495804        0.00358878
      85         -0.780060        1.000000        0.01858343        0.00965883        0.01706971        0.00364587
      86         -0.768993        1.000000        0.00703781        0.00144487        0.00632089        0.00282940
      87         -0.768744        1.000000        0.00739976        0.00274787        0.00672900        0.00239777
      88         -0.768717        1.000000        0.00359627        0.00233975        0.00324748        0.00163088
      89         -0.768671        1.000000        0.00628953        0.00236828        0.00540045        0.00291087
      90         -0.768510        1.000000        0.00792576        0.00487860        0.00711858        0.00212854
      91         -0.768474        1.000000        0.00729806        0.00312456        0.00644277        0.00287000
      92         -0.763480        1.000000        0.00083283        0.00050293        0.00075164        0.00018475
      93         -0.763432        1.000000        0.00045518        0.00034758        0.00041217        0.00012860
      94         -0.762878        1.000000        0.00358297        0.00125837        0.00295377        0.00196065
      95         -0.762677        1.000000        0.00369706        0.00142845        0.00335894        0.00192705
      96         -0.762632        1.000000        0.00406675        0.00111854        0.00368085        0.00189252
      97         -0.762464        1.000000        0.00385352        0.00125964        0.00321885        0.00192095
      98         -0.760354        1.000000        0.00031322        0.00020660        0.00027678        0.00021106
      99         -0.760214        1.000000        0.00019166        0.00016379        0.00017037        0.00016420
     100         -0.759363        1.000000        0.00674912        0.00230177        0.00578117        0.00302566
     101         -0.759315        1.000000        0.00637774        0.00269511        0.00542198        0.00248161
     102         -0.759233        1.000000        0.00667174        0.00165383        0.00567958        0.00390749
     103         -0.759179        1.000000        0.00839136        0.00243434        0.00744163        0.00302595
     104         -0.758901        1.000000        0.00776055        0.00193342        0.00675412        0.00383810
     105         -0.758782        1.000000        0.00604166        0.00198204        0.00501392        0.00314347
     106         -0.758682        1.000000        0.00749605        0.00249410        0.00677983        0.00368748
     107         -0.758557        1.000000        0.00604446        0.00260924        0.00551583        0.00330968
     108         -0.757997        1.000000        0.00899270        0.00527959        0.00797410        0.00194519
     109         -0.757391        1.000000        0.00671950        0.00489259        0.00598794        0.00175746
     110         -0.750665        1.000000        0.00218770        0.00075769        0.00185729        0.00094439
     111         -0.750300        1.000000        0.00717867        0.00081624        0.00623234        0.00187116
     112         -0.750147        1.000000        0.00434911        0.00233692        0.00359483        0.00154088
     113         -0.750099        1.000000        0.00603271        0.00246519        0.00511121        0.00146484
     114         -0.749904        1.000000        0.00135541        0.00080961        0.00118541        0.00087378
     115         -0.749761        1.000000        0.00948985        0.00108949        0.00827944        0.00281488
     116         -0.749510        1.000000        0.00259006        0.00110055        0.00188097        0.00302499
     117         -0.748924        1.000000        0.00497753        0.00262985        0.00434149        0.00243220
     118         -0.748900        1.000000        0.00437861        0.00192347        0.00332175        0.00396876
     119         -0.748853        1.000000        0.00750774        0.00388599        0.00645558        0.00272438
     120         -0.748479        1.000000        0.01176150        0.00623374        0.01016669        0.00301388
     121         -0.748153        1.000000        0.01345610        0.00856188        0.01160844        0.00331517
     122         -0.734764        1.000000        0.00843543        0.00056139        0.00692023        0.00160016
     123         -0.734104        1.000000        0.00574718        0.00266276        0.00463789        0.00138964
     124         -0.734023        1.000000        0.00450992        0.00211796        0.00364687        0.00139172
     125         -0.733782        1.000000        0.00657371        0.00380467        0.00531060        0.00171957
     126         -0.733443        1.000000        0.00211536        0.00129355        0.00166602        0.00118616
     127         -0.733208        1.000000        0.00266374        0.00140270        0.00175278        0.00356017
     128         -0.732581        1.000000        0.00014700        0.00007784        0.00011573        0.00007792
     129         -0.732569        1.000000        0.00007372        0.00005017        0.00005720        0.00004606
     130         -0.731911        1.000000        0.00234290        0.00075536        0.00183671        0.00074057
     131         -0.731699        1.000000        0.00436758        0.00075270        0.00357597        0.00124562
     132         -0.731544        1.000000        0.00200220        0.00062792        0.00147103        0.00129238
     133         -0.731246        1.000000        0.00194220        0.00097580        0.00148544        0.00090249
     134         -0.730304        1.000000        0.00896669        0.00253939        0.00727295        0.00282813
     135         -0.730292        1.000000        0.00928821        0.00237521        0.00751746        0.00300203
     136         -0.730198        1.000000        0.00350543        0.00178520        0.00279883        0.00092891
     137         -0.730020        1.000000        0.00249698        0.00149211        0.00201088        0.00063205
     138         -0.729827        1.000000        0.00592040        0.00207479        0.00446671        0.00361203
     139         -0.729694        1.000000        0.00481094        0.00199920        0.00354830        0.00340797
     140         -0.725345        1.000000        0.00753520        0.00088353        0.00598287        0.00144072
     141         -0.725315        1.000000        0.00752108        0.00101674        0.00594159        0.00149652
     142         -0.725206        1.000000        0.00293582        0.00050382        0.00229620        0.00068952
     143         -0.725116        1.000000        0.00070780        0.00037572        0.00054407        0.00034250
     144         -0.724717        1.000000        0.00519878        0.00204341        0.00390565        0.00211206
     145         -0.724446        1.000000        0.00491274        0.00217606        0.00373165        0.00206727
     146         -0.724155        1.000000        0.00593843        0.00225536        0.00459993        0.00211225
     147         -0.724071        1.000000        0.00665991        0.00231762        0.00525444        0.00246392
     148         -0.723858        1.000000        0.00241096        0.00118498        0.00154464        0.00286778
     149         -0.723770        1.000000        0.00281615        0.00148661        0.00178588        0.00371778
     150         -0.723287        1.000000        0.01031912        0.00570227        0.00792647        0.00213793
     151         -0.722594        1.000000        0.01027394        0.00605804        0.00795323        0.00222271
     152         -0.713657        1.000000        0.00635262        0.00039034        0.00472330        0.00078412
     153         -0.713425        1.000000        0.00963893        0.00060010        0.00718397        0.00137031
     154         -0.712984        1.000000        0.00198023        0.00083849        0.00134086        0.00043205
     155         -0.712977        1.000000        0.00427250        0.00129704        0.00307475        0.00118819
     156         -0.712696        1.000000        0.00251639        0.00084348        0.00183202        0.00092688
     157         -0.712561        1.000000        0.00299911        0.00180054        0.00209175        0.00099440
     158         -0.711731        1.000000        0.00483329        0.00216650        0.00331478        0.00246604
     159         -0.711480        1.000000        0.00780774        0.00365262        0.00558210        0.00231652
     160         -0.711381        1.000000        0.00578506        0.00265121        0.00413025        0.00170965
     161         -0.711140        1.000000        0.00539732        0.00229215        0.00386282        0.00199347
     162         -0.711107        1.000000        0.01076381        0.00558396        0.00781684        0.00236732
     163         -0.710878        1.000000        0.00252249        0.00141881        0.00137722        0.00379050
     164         -0.698165        1.000000        0.00032319        0.00015482        0.00020142        0.00007179
     165         -0.698156        1.000000        0.00031827        0.00016801        0.00021893        0.00005988
     166         -0.697962        1.000000        0.00522276        0.00097310        0.00354453        0.00080928
     167         -0.697586        1.000000        0.00582881        0.00108751        0.00400091        0.00111175
     168         -0.697000        1.000000        0.00098066        0.00050420        0.00056043        0.00095125
     169         -0.696909        1.000000        0.00159546        0.00054528        0.00093047        0.00121461
     170         -0.696134        1.000000        0.00763537        0.00028620        0.00518086        0.00074598
     171         -0.695396        1.000000        0.00112377        0.00027708        0.00069862        0.00025866
     172         -0.695263        1.000000        0.00103618        0.00017711        0.00065424        0.00016701
     173         -0.695244        1.000000        0.00822591        0.00100919        0.00562187        0.00100561
     174         -0.695007        1.000000        0.00744254        0.00109410        0.00503210        0.00106623
     175         -0.694766        1.000000        0.00549173        0.00204553        0.00352896        0.00110229
     176         -0.694664        1.000000        0.00447213        0.00173548        0.00294387        0.00095991
     177         -0.694599        1.000000        0.00331660        0.00099847        0.00212981        0.00079398
     178         -0.694439        1.000000        0.00577572        0.00143322        0.00383820        0.00110526
     179         -0.693862        1.000000        0.00830342        0.00180340        0.00546040        0.00196371
     180         -0.693797        1.000000        0.00477432        0.00172686        0.00295963        0.00133115
     181         -0.693512        1.000000        0.00485720        0.00144335        0.00301025        0.00221918
     182         -0.693328        1.000000        0.00162095        0.00095548        0.00070841        0.00265201
     183         -0.693322        1.000000        0.00409651        0.00168765        0.00248384        0.00221948
     184         -0.692909        1.000000        0.00282231        0.00127298        0.00149727        0.00281916
     185         -0.692899        1.000000        0.00231719        0.00118019        0.00118785        0.00272785
     186         -0.692358        1.000000        0.00502449        0.00231523        0.00310295        0.00105191
     187         -0.692355        1.000000        0.00582058        0.00284385        0.00382162        0.00112580
     188         -0.687128        1.000000        0.00867803        0.00053874        0.00562451        0.00089209
     189         -0.686974        1.000000        0.00672382        0.00055815        0.00429269        0.00071251
     190         -0.685916        1.000000        0.00304237        0.00069768        0.00169878        0.00066936
     191         -0.685869        1.000000        0.00166535        0.00062184        0.00103717        0.00045465
     192         -0.685679        1.000000        0.00386822        0.00125087        0.00231619        0.00132170
     193         -0.685352        1.000000        0.00718923        0.00177441        0.00442001        0.00152452
     194         -0.685278        1.000000        0.00430677        0.00141063        0.00256850        0.00129030
     195         -0.685008        1.000000        0.00510479        0.00162082        0.00304577        0.00128569
     196         -0.684564        1.000000        0.00258211        0.00122297        0.00132823        0.00216259
     197         -0.684420        1.000000        0.01230952        0.00470521        0.00761715        0.00194595
     198         -0.684137        1.000000        0.00185985        0.00102966        0.00076674        0.00282959
     199         -0.683859        1.000000        0.00844811        0.00389299        0.00487431        0.00174131
     200         -0.674710        1.000000        0.00586823        0.00023678        0.00350910        0.00049112
     201         -0.674407        1.000000        0.00920374        0.00037541        0.00541770        0.00090016
     202         -0.673937        1.000000        0.00251586        0.00053773        0.00137410        0.00045085
     203         -0.673646        1.000000        0.00244301        0.00062602        0.00137673        0.00051016
     204         -0.673588        1.000000        0.00315241        0.00099298        0.00158070        0.00062605
     205         -0.673369        1.000000        0.00264024        0.00084834        0.00129552        0.00051575
     206         -0.672554        1.000000        0.00603004        0.00179313        0.00326168        0.00149298
     207         -0.672454        1.000000        0.00576012        0.00172527        0.00311907        0.00150609
     208         -0.672384        1.000000        0.00666596        0.00206382        0.00370510        0.00115222
     209         -0.672135        1.000000        0.00623791        0.00148960        0.00323190        0.00117925
     210         -0.672056        1.000000        0.00446896        0.00122249        0.00233670        0.00095108
     211         -0.671904        1.000000        0.00249811        0.00100006        0.00116546        0.00165715
     212         -0.665289        1.000000        0.00438323        0.00013642        0.00244142        0.00038460
     213         -0.664314        1.000000        0.00949148        0.00201572        0.00491174        0.00122957
     214         -0.663993        1.000000        0.00763323        0.00107030        0.00339923        0.00105941
     215         -0.661071        1.000000        0.00008183        0.00001323        0.00003928        0.00001061
     216         -0.661068        1.000000        0.00008423        0.00001377        0.00003927        0.00001181
     217         -0.660939        1.000000        0.00379524        0.00042497        0.00207209        0.00036649
     218         -0.660424        1.000000        0.00465089        0.00057504        0.00243659        0.00053014
     219         -0.660075        1.000000        0.00917031        0.00137413        0.00496359        0.00086222
     220         -0.659836        1.000000        0.01051411        0.00154511        0.00570388        0.00103042
     221         -0.659797        1.000000        0.00113231        0.00027272        0.00053124        0.00039973
     222         -0.659755        1.000000        0.00094889        0.00022865        0.00040484        0.00054296
     223         -0.659104        1.000000        0.00057750        0.00024493        0.00027956        0.00010660
     224         -0.659087        1.000000        0.00058354        0.00022753        0.00028273        0.00011449
     225         -0.657535        1.000000        0.00227563        0.00059213        0.00094837        0.00147624
     226         -0.657515        1.000000        0.00235060        0.00065156        0.00097311        0.00147859
     227         -0.657373        1.000000        0.00130807        0.00020559        0.00064349        0.00015966
     228         -0.657324        1.000000        0.00204830        0.00024192        0.00104659        0.00024331
     229         -0.657203        1.000000        0.00505135        0.00051215        0.00269859        0.00048060
     230         -0.656867        1.000000        0.00264115        0.00048429        0.00127643        0.00065065
     231         -0.656796        1.000000        0.00496392        0.00056709        0.00247667        0.00075014
     232         -0.656663        1.000000        0.00194062        0.00054371        0.00084786        0.00098694
     233         -0.656627        1.000000        0.00674943        0.00041853        0.00363251        0.00057200
     234         -0.656512        1.000000        0.00594132        0.00038367        0.00312799        0.00053853
     235         -0.655947        1.000000        0.00448711        0.00092916        0.00204972        0.00053832
     236         -0.655915        1.000000        0.00809113        0.00125375        0.00409654        0.00085909
     237         -0.654953        1.000000        0.00368428        0.00076371        0.00164198        0.00135980
     238         -0.654913        1.000000        0.00352398        0.00081949        0.00152553        0.00138660
     239         -0.654654        1.000000        0.00967089        0.00130597        0.00427592        0.00107869
     240         -0.654634        1.000000        0.00192655        0.00058762        0.00071404        0.00148917
     241         -0.654628        1.000000        0.00393239        0.00079138        0.00163496        0.00149285
     242         -0.654232        1.000000        0.00980101        0.00137940        0.00443932        0.00132290
     243         -0.651236        1.000000        0.02515969        0.00530236        0.01150205        0.00320744
     244         -0.650906        1.000000        0.02164449        0.00508684        0.00956533        0.00319035
     245         -0.631299        1.000000        0.00308821        0.00030693        0.00127654        0.00020283
     246         -0.631272        1.000000        0.00338309        0.00035638        0.00135163        0.00019330
     247         -0.630702        1.000000        0.00466339        0.00051379        0.00197234        0.00033147
     248         -0.630659        1.000000        0.00591594        0.00051611        0.00257810        0.00045751
     249         -0.629791        1.000000        0.00431784        0.00053408        0.00154753        0.00074456
     250         -0.629670        1.000000        0.00336918        0.00042304        0.00113004        0.00069405
     251         -0.624364        1.000000        0.00881606        0.00089618        0.00371110        0.00063136
     252         -0.624099        1.000000        0.00756322        0.00090329        0.00308661        0.00051933
     253         -0.622675        1.000000        0.00470128        0.00066151        0.00164777        0.00066557
     254         -0.622493        1.000000        0.00195825        0.00032488        0.00059891        0.00051760
     255         -0.622022        1.000000        0.00214116        0.00093364        0.00087577        0.00042785
     256         -0.621871        1.000000        0.00145714        0.00059580        0.00057899        0.00038861
     257         -0.621743        1.000000        0.00650767        0.00084937        0.00200330        0.00148171
     258         -0.621362        1.000000        0.01023679        0.00131022        0.00319499        0.00169754
     259         -0.620809        1.000000        0.00303533        0.00064118        0.00065146        0.00179983