# Projected DOS for atomic kind C at iteration step i = 36, E(Fermi) =    -0.147424 a.u.
#     MO Eigenvalue [a.u.]      Occupation                 s                py                pz                px               d-2               d-1                d0               d+1               d+2
       1         -0.850213        1.000000        0.84606319        0.00168146        0.00016243        0.00412366        0.00010116        0.00001952        0.13858609        0.00004404        0.00004412
       2         -0.847833        1.000000        0.82268649        0.02618849        0.00001698        0.01571436        0.00039520        0.00001427        0.13096375        0.00003280        0.00064244
       3         -0.847829        1.000000        0.82371700        0.02579465        0.00001132        0.01620641        0.00040063        0.00001018        0.13113658        0.00002741        0.00062668
       4         -0.847171        1.000000        0.81370616        0.01075185        0.00009585        0.03032835        0.00083116        0.00004534        0.12920756        0.00012505        0.00030217
       5         -0.847064        1.000000        0.81146369        0.01948407        0.00042568        0.02220672        0.00059259        0.00009652        0.12813962        0.00010330        0.00052630
       6         -0.845697        1.000000        0.77433190        0.02758598        0.00107184        0.02205728        0.00061797        0.00010741        0.11934082        0.00017983        0.00086056
       7         -0.844726        1.000000        0.74378642        0.02010756        0.00182245        0.03185560        0.00097216        0.00013262        0.11206272        0.00035017        0.00073882
       8         -0.841062        1.000000        0.75668331        0.07709413        0.00025570        0.03493807        0.00252489        0.00005582        0.11113482        0.00007438        0.00233043
       9         -0.841021        1.000000        0.76113466        0.08034974        0.00018579        0.03191043        0.00251792        0.00006565        0.11197641        0.00006100        0.00239087
      10         -0.840701        1.000000        0.75650351        0.04120735        0.00014315        0.06771836        0.00238337        0.00006515        0.11158435        0.00015184        0.00236534
      11         -0.840394        1.000000        0.74215824        0.04013997        0.00026680        0.06534391        0.00233502        0.00011538        0.10932952        0.00028944        0.00242592
      12         -0.840056        1.000000        0.73265555        0.04524404        0.00104977        0.06645227        0.00273247        0.00015879        0.10525613        0.00023305        0.00247908
      13         -0.839362        1.000000        0.69846251        0.04493855        0.00272194        0.06034329        0.00234313        0.00023193        0.09639049        0.00032528        0.00266806
      14         -0.837739        1.000000        0.73428799        0.08433438        0.00010318        0.05159870        0.00268665        0.00006545        0.10453181        0.00014388        0.00431658
      15         -0.837697        1.000000        0.73721728        0.08525087        0.00007772        0.05146150        0.00266417        0.00005983        0.10494535        0.00012587        0.00432743
      16         -0.836883        1.000000        0.70006775        0.03397637        0.00079866        0.09680431        0.00532473        0.00016401        0.09821645        0.00045185        0.00192026
      17         -0.836085        1.000000        0.65501674        0.03170272        0.00416048        0.08776096        0.00493450        0.00023121        0.08362041        0.00059814        0.00190437
      18         -0.835561        1.000000        0.65376252        0.07565123        0.00287597        0.05056680        0.00268853        0.00054587        0.08582434        0.00051589        0.00421589
      19         -0.835553        1.000000        0.66221903        0.07376143        0.00251171        0.05083500        0.00275870        0.00061292        0.08813965        0.00059556        0.00416411
      20         -0.828741        1.000000        0.68575489        0.15119525        0.00000803        0.05796506        0.00920796        0.00001364        0.08688179        0.00002388        0.00709882
      21         -0.828712        1.000000        0.68506067        0.15056306        0.00001301        0.05864176        0.00923406        0.00001423        0.08677190        0.00002857        0.00711604
      22         -0.828011        1.000000        0.66872284        0.08111502        0.00090486        0.12175936        0.00809583        0.00012156        0.08251884        0.00020503        0.00813165
      23         -0.827970        1.000000        0.67966316        0.09828640        0.00042984        0.10443421        0.00775134        0.00023307        0.08511168        0.00021002        0.00836065
      24         -0.827918        1.000000        0.66731669        0.07299066        0.00043660        0.13119423        0.00767614        0.00009830        0.08340724        0.00020813        0.00853939
      25         -0.827637        1.000000        0.66904763        0.08490769        0.00021141        0.11885482        0.00677058        0.00014695        0.08427067        0.00028529        0.00919204
      26         -0.826767        1.000000        0.64090132        0.08923697        0.00237065        0.10289416        0.00798264        0.00046511        0.07542719        0.00054066        0.00783385
      27         -0.826624        1.000000        0.62899207        0.08290531        0.00303766        0.10603205        0.00849759        0.00042461        0.07228602        0.00061937        0.00722024
      28         -0.826507        1.000000        0.63578152        0.09181161        0.00074709        0.10509813        0.00806657        0.00033898        0.07855969        0.00053456        0.00787218
      29         -0.826353        1.000000        0.62317404        0.09606314        0.00111337        0.10133215        0.00837238        0.00040957        0.07594510        0.00059667        0.00758552
      30         -0.825845        1.000000        0.62310567        0.10898049        0.00262408        0.08406721        0.00728110        0.00064819        0.07183762        0.00060579        0.00875827
      31         -0.825765        1.000000        0.61567785        0.09084505        0.00289258        0.09696472        0.00728303        0.00065891        0.07065526        0.00074407        0.00847159
      32         -0.821116        1.000000        0.63022913        0.14789975        0.00023419        0.08887547        0.00857323        0.00017969        0.07257072        0.00027233        0.01401270
      33         -0.820971        1.000000        0.63457354        0.14745784        0.00020234        0.08931521        0.00861889        0.00017326        0.07312279        0.00026656        0.01395452
      34         -0.820803        1.000000        0.63172261        0.05592421        0.00243423        0.16307825        0.01735191        0.00022491        0.06787426        0.00060563        0.00597709
      35         -0.820177        1.000000        0.58998751        0.06055703        0.00106986        0.17498722        0.01687486        0.00027806        0.06663350        0.00072340        0.00595368
      36         -0.819761        1.000000        0.57433368        0.13530817        0.00319086        0.08288014        0.00820856        0.00131963        0.05917631        0.00080754        0.01350990
      37         -0.819534        1.000000        0.58552241        0.13202595        0.00277423        0.08405581        0.00861054        0.00139835        0.06159395        0.00083780        0.01340791
      38         -0.811807        1.000000        0.60343886        0.21369039        0.00013208        0.07607501        0.02194861        0.00013308        0.06031277        0.00009070        0.01303177
      39         -0.811771        1.000000        0.60401053        0.21499561        0.00012684        0.07530709        0.02204448        0.00011369        0.06034360        0.00007611        0.01304777
      40         -0.811304        1.000000        0.59612180        0.10711831        0.00177982        0.16335377        0.01479781        0.00039897        0.05618775        0.00052106        0.01884136
      41         -0.811104        1.000000        0.59421071        0.10680599        0.00068675        0.17535773        0.01473373        0.00028833        0.05839288        0.00037968        0.01958312
      42         -0.811077        1.000000        0.59578062        0.10780666        0.00096890        0.17185645        0.01468516        0.00035419        0.05790974        0.00041608        0.01929129
      43         -0.810753        1.000000        0.56904844        0.10552916        0.00062957        0.17819480        0.01523272        0.00026828        0.05598837        0.00052051        0.01958876
      44         -0.808642        1.000000        0.59214079        0.20829833        0.00006580        0.09099693        0.02055827        0.00008544        0.05691187        0.00011273        0.01782184
      45         -0.808570        1.000000        0.58913974        0.20772055        0.00010110        0.09104126        0.02044570        0.00009955        0.05656743        0.00015353        0.01795041
      46         -0.807929        1.000000        0.58393009        0.08737072        0.00187847        0.18764077        0.02278150        0.00043613        0.05245160        0.00069835        0.01445171
      47         -0.807858        1.000000        0.57290182        0.14704743        0.00234046        0.13088875        0.01339720        0.00080923        0.05004087        0.00068470        0.02297910
      48         -0.807720        1.000000        0.57980742        0.14293060        0.00130948        0.14165703        0.01517786        0.00080381        0.05305873        0.00060992        0.02182064
      49         -0.807675        1.000000        0.58012304        0.08232202        0.00212662        0.18562939        0.02391370        0.00044476        0.05147976        0.00087414        0.01328717
      50         -0.807332        1.000000        0.54804182        0.08793694        0.00117868        0.20325853        0.02400089        0.00034702        0.05088860        0.00068689        0.01404297
      51         -0.807273        1.000000        0.54199452        0.13941564        0.00081713        0.14213612        0.01289485        0.00047656        0.05068606        0.00066441        0.02414891
      52         -0.807172        1.000000        0.54827710        0.14493214        0.00073831        0.13665852        0.01242202        0.00050515        0.05132444        0.00063686        0.02481389
      53         -0.806689        1.000000        0.52098512        0.08546499        0.00162576        0.20276190        0.02365115        0.00048094        0.04732876        0.00105112        0.01390796
      54         -0.806028        1.000000        0.53376791        0.17818731        0.00263788        0.09261110        0.01697843        0.00179655        0.04489928        0.00096292        0.01877443
      55         -0.805809        1.000000        0.53833239        0.18105235        0.00227842        0.08965390        0.01783608        0.00173711        0.04607555        0.00092348        0.01850695
      56         -0.798131        1.000000        0.53858390        0.16671648        0.00072637        0.14824831        0.02340822        0.00039835        0.04318652        0.00051042        0.02601956
      57         -0.798025        1.000000        0.54387539        0.10295043        0.00114635        0.20492295        0.03346229        0.00030494        0.04285276        0.00075568        0.01654560
      58         -0.797872        1.000000        0.53522417        0.19684074        0.00040411        0.12030705        0.01872671        0.00042353        0.04334497        0.00043657        0.03067677
      59         -0.797465        1.000000        0.51814323        0.13944962        0.00205087        0.17421998        0.02755392        0.00119012        0.03898578        0.00089845        0.02206206
      60         -0.797375        1.000000        0.51801821        0.13992446        0.00174580        0.17585553        0.02791059        0.00099288        0.03951706        0.00083388        0.02206260
      61         -0.797178        1.000000        0.52080391        0.18891572        0.00245902        0.11445829        0.01840956        0.00199039        0.03764018        0.00099786        0.03008723
      62         -0.789830        1.000000        0.53511513        0.26766394        0.00001173        0.09396868        0.04002570        0.00002060        0.03755302        0.00002931        0.02234137
      63         -0.789770        1.000000        0.53533785        0.26792512        0.00000947        0.09374281        0.04012363        0.00002035        0.03755678        0.00002814        0.02231453
      64         -0.789085        1.000000        0.52246899        0.13636242        0.00040380        0.22014341        0.02796920        0.00024927        0.03598931        0.00027277        0.03420054
      65         -0.788957        1.000000        0.52560584        0.12480842        0.00089619        0.22042219        0.02710801        0.00036423        0.03514744        0.00057572        0.03329141
      66         -0.788840        1.000000        0.53072555        0.14107570        0.00061372        0.20953288        0.02471731        0.00037677        0.03602067        0.00035836        0.03616878
      67         -0.788552        1.000000        0.51627049        0.13440832        0.00050815        0.21912373        0.02596824        0.00033969        0.03509917        0.00054666        0.03637254
      68         -0.787837        1.000000        0.51591487        0.12110936        0.00187794        0.20133231        0.02643501        0.00082767        0.03262160        0.00115627        0.02991489
      69         -0.787822        1.000000        0.51759580        0.13286530        0.00180672        0.19072114        0.02346203        0.00090843        0.03282379        0.00109864        0.03238698
      70         -0.787459        1.000000        0.51037473        0.25128337        0.00068599        0.09593086        0.03720468        0.00082834        0.03358349        0.00041466        0.02344556
      71         -0.787358        1.000000        0.51397067        0.25283211        0.00053071        0.09517495        0.03768641        0.00081729        0.03411416        0.00040239        0.02341036
      72         -0.786949        1.000000        0.47140896        0.12516335        0.00186805        0.21334394        0.02737008        0.00079447        0.03009722        0.00102100        0.03387779
      73         -0.786879        1.000000        0.46908578        0.12823064        0.00177428        0.21010548        0.02598285        0.00085703        0.02993213        0.00113708        0.03524115
      74         -0.782568        1.000000        0.49969421        0.23073181        0.00030632        0.13482782        0.03315546        0.00025405        0.03084406        0.00027585        0.03667445
      75         -0.782261        1.000000        0.50949697        0.24395543        0.00013525        0.12042093        0.03432067        0.00021936        0.03159680        0.00023193        0.03556721
      76         -0.782131        1.000000        0.50328511        0.18575071        0.00126817        0.16623832        0.02642623        0.00090655        0.02918078        0.00071925        0.04075920
      77         -0.781911        1.000000        0.50701152        0.19976988        0.00119349        0.15398735        0.02230098        0.00112234        0.02935240        0.00074383        0.04468391
      78         -0.781888        1.000000        0.49654195        0.11356604        0.00106284        0.24189044        0.04521894        0.00037013        0.02964129        0.00069909        0.02455842
      79         -0.781644        1.000000        0.49381980        0.11594506        0.00124820        0.24066238        0.04617018        0.00035336        0.02917022        0.00064577        0.02418425
      80         -0.781580        1.000000        0.48732113        0.09204278        0.00135080        0.25093002        0.04652919        0.00047778        0.02839080        0.00125080        0.02102566
      81         -0.781112        1.000000        0.46954344        0.18509529        0.00095819        0.16280490        0.02609519        0.00082887        0.02762544        0.00074318        0.04306755
      82         -0.781078        1.000000        0.47550281        0.13825385        0.00156422        0.21125717        0.03839604        0.00068165        0.02718714        0.00100817        0.03153242
      83         -0.781002        1.000000        0.46795175        0.15072304        0.00152185        0.19516678        0.03278154        0.00077030        0.02697838        0.00086769        0.03677253
      84         -0.780090        1.000000        0.46819008        0.22032992        0.00221652        0.11119174        0.03084376        0.00306726        0.02436055        0.00137413        0.03473207
      85         -0.780060        1.000000        0.46368577        0.21866647        0.00255868        0.11176352        0.02997917        0.00317497        0.02338961        0.00141275        0.03484918
      86         -0.768993        1.000000        0.46400709        0.12863139        0.00163343        0.24088247        0.05693393        0.00046109        0.02081211        0.00072625        0.03023444
      87         -0.768744        1.000000        0.46085976        0.19639392        0.00129832        0.17483810        0.04092685        0.00106825        0.02045651        0.00078492        0.04531938
      88         -0.768717        1.000000        0.46171188        0.22742092        0.00054652        0.14618050        0.03341621        0.00094031        0.02145693        0.00059363        0.05227278
      89         -0.768671        1.000000        0.45760882        0.16049717        0.00112538        0.21166584        0.04790647        0.00087809        0.02062494        0.00097752        0.03646944
      90         -0.768510        1.000000        0.46704670        0.23363469        0.00107677        0.14018599        0.03250661        0.00182151        0.02059782        0.00087233        0.05219175
      91         -0.768474        1.000000        0.46064543        0.17013910        0.00121704        0.20224737        0.04635598        0.00115083        0.02044961        0.00095481        0.03850588
      92         -0.763480        1.000000        0.47102311        0.30260377        0.00010508        0.10501639        0.06029741        0.00021581        0.01952552        0.00009833        0.03116386
      93         -0.763432        1.000000        0.47274940        0.30291678        0.00005364        0.10548281        0.06053465        0.00014848        0.01966287        0.00007288        0.03136620
      94         -0.762878        1.000000        0.46056400        0.14931337        0.00065707        0.24190691        0.03667163        0.00046147        0.01850213        0.00068390        0.05177129
      95         -0.762677        1.000000        0.46195252        0.15947266        0.00075413        0.23761011        0.03860894        0.00061729        0.01836099        0.00064871        0.05185259
      96         -0.762632        1.000000        0.45723791        0.14453803        0.00088631        0.25385721        0.03840043        0.00050389        0.01805324        0.00052723        0.05245599
      97         -0.762464        1.000000        0.46197219        0.14467431        0.00068467        0.24725226        0.03659676        0.00049452        0.01841780        0.00074354        0.05087358
      98         -0.760354        1.000000        0.46320065        0.29546036        0.00005865        0.11233695        0.05775136        0.00011303        0.01822041        0.00010732        0.03701390
      99         -0.760214        1.000000        0.46527753        0.29655793        0.00003667        0.11133692        0.05823328        0.00009150        0.01829883        0.00009322        0.03687497
     100         -0.759363        1.000000        0.44840497        0.14970433        0.00133560        0.23223943        0.04026694        0.00088720        0.01614438        0.00102242        0.04931063
     101         -0.759315        1.000000        0.45455221        0.17945398        0.00104641        0.20384034        0.02728321        0.00102737        0.01642173        0.00094525        0.06167830
     102         -0.759233        1.000000        0.43849112        0.11176563        0.00149436        0.27037367        0.05001909        0.00063504        0.01575007        0.00121390        0.04182373
     103         -0.759179        1.000000        0.45017068        0.15099632        0.00176832        0.23060756        0.04690142        0.00097148        0.01571547        0.00098036        0.04459403
     104         -0.758901        1.000000        0.43925025        0.12037226        0.00179308        0.25973569        0.05233938        0.00073658        0.01540939        0.00111588        0.03975618
     105         -0.758782        1.000000        0.44352650        0.13457214        0.00118538        0.25163174        0.05044295        0.00075985        0.01601994        0.00112705        0.04005124
     106         -0.758682        1.000000        0.42674742        0.16453037        0.00150795        0.22143638        0.03238870        0.00119649        0.01483232        0.00108451        0.06225555
     107         -0.758557        1.000000        0.43142156        0.17875350        0.00123772        0.20912240        0.02973793        0.00121964        0.01530156        0.00104266        0.06535090
     108         -0.757997        1.000000        0.42497421        0.27086971        0.00109954        0.10658766        0.05318573        0.00237599        0.01430333        0.00096448        0.03555095
     109         -0.757391        1.000000        0.43794453        0.27264393        0.00074706        0.10503632        0.05450870        0.00214344        0.01519693        0.00087982        0.03645370
     110         -0.750665        1.000000        0.43307079        0.24200839        0.00050080        0.16243354        0.04970367        0.00042539        0.01335219        0.00035638        0.05842337
     111         -0.750300        1.000000        0.44327152        0.10402514        0.00196628        0.28417845        0.07863292        0.00029013        0.01271419        0.00049807        0.03191880
     112         -0.750147        1.000000        0.43647472        0.22980259        0.00062810        0.16951645        0.04147839        0.00108036        0.01304817        0.00069436        0.06421261
     113         -0.750099        1.000000        0.44138896        0.23260646        0.00086032        0.16475070        0.03426845        0.00115283        0.01279322        0.00078040        0.06993375
     114         -0.749904        1.000000        0.43854091        0.25674553        0.00024049        0.14552288        0.04648401        0.00045479        0.01359692        0.00039124        0.06198055
     115         -0.749761        1.000000        0.43724898        0.12382345        0.00217892        0.25488856        0.07466530        0.00048721        0.01192325        0.00086686        0.03479558
     116         -0.749510        1.000000        0.42356620        0.10677326        0.00069560        0.29833163        0.07591819        0.00038213        0.01294600        0.00102117        0.03065661
     117         -0.748924        1.000000        0.40576891        0.22587416        0.00080703        0.16089651        0.03877449        0.00141411        0.01161934        0.00090123        0.06775031
     118         -0.748900        1.000000        0.41445715        0.12347312        0.00090118        0.27685871        0.06769104        0.00079953        0.01225537        0.00151267        0.03609792
     119         -0.748853        1.000000        0.41321440        0.21873223        0.00111442        0.16701323        0.04241495        0.00190525        0.01138891        0.00109257        0.06301642
     120         -0.748479        1.000000        0.41446630        0.23767006        0.00152950        0.14431318        0.04300855        0.00300019        0.01050812        0.00137245        0.05994746
     121         -0.748153        1.000000        0.41977138        0.25112978        0.00152397        0.12608020        0.04728394        0.00403882        0.01038270        0.00162854        0.05577209
     122         -0.734764        1.000000        0.42148945        0.09859969        0.00219328        0.28648686        0.09725956        0.00023250        0.00779988        0.00053925        0.03341681
     123         -0.734104        1.000000        0.41044785        0.25563147        0.00071013        0.15222253        0.04802230        0.00156551        0.00773013        0.00076782        0.07880686
     124         -0.734023        1.000000        0.40067192        0.25307233        0.00059284        0.15271134        0.04752311        0.00131010        0.00763429        0.00069203        0.07891139
     125         -0.733782        1.000000        0.41957929        0.25053601        0.00069180        0.16184634        0.05044409        0.00205719        0.00772575        0.00095427        0.07432342
     126         -0.733443        1.000000        0.40149311        0.24415566        0.00037303        0.15381425        0.04989073        0.00085937        0.00793963        0.00055390        0.07878518
     127         -0.733208        1.000000        0.39154134        0.11169351        0.00072205        0.30398672        0.09228125        0.00061599        0.00783243        0.00144764        0.03412624
     128         -0.732581        1.000000        0.42213529        0.32333229        0.00002381        0.11783969        0.07917959        0.00005978        0.00785920        0.00004471        0.04301715
     129         -0.732569        1.000000        0.42332059        0.32575911        0.00001362        0.11606775        0.07993502        0.00003883        0.00788131        0.00003240        0.04235982
     130         -0.731911        1.000000        0.42117628        0.16956076        0.00054548        0.26404703        0.05179220        0.00050604        0.00746896        0.00038491        0.06861715
     131         -0.731699        1.000000        0.41793784        0.15851499        0.00082373        0.26551989        0.05509576        0.00056239        0.00714402        0.00056083        0.06546791
     132         -0.731544        1.000000        0.41004327        0.16301356        0.00037034        0.26901959        0.05020384        0.00034948        0.00734128        0.00063616        0.07026325
     133         -0.731246        1.000000        0.41743793        0.16765042        0.00032204        0.26524692        0.04925875        0.00048044        0.00743224        0.00046713        0.07100160
     134         -0.730304        1.000000        0.40463536        0.16826937        0.00190929        0.23653980        0.04754480        0.00165335        0.00623257        0.00124368        0.06798977
     135         -0.730292        1.000000        0.40286894        0.16679450        0.00188001        0.23532423        0.05143139        0.00155880        0.00618637        0.00130812        0.06365846
     136         -0.730198        1.000000        0.40449640        0.29795613        0.00040942        0.12796160        0.07393511        0.00111769        0.00675830        0.00052213        0.04549558
     137         -0.730020        1.000000        0.41265383        0.30666263        0.00025678        0.11921579        0.07603342        0.00092081        0.00698363        0.00039287        0.04507622
     138         -0.729827        1.000000        0.38736926        0.15387730        0.00119825        0.25344219        0.04998255        0.00109787        0.00633443        0.00153160        0.06457165
     139         -0.729694        1.000000        0.38828873        0.15531665        0.00099346        0.25339643        0.04898749        0.00097514        0.00645318        0.00141557        0.06501407
     140         -0.725345        1.000000        0.40732959        0.16143493        0.00172531        0.23815928        0.08109285        0.00058913        0.00558938        0.00062316        0.04826345
     141         -0.725315        1.000000        0.41101717        0.12231999        0.00185393        0.28067893        0.08193556        0.00068185        0.00564091        0.00068687        0.04760864
     142         -0.725206        1.000000        0.40372903        0.26061409        0.00059977        0.15999838        0.07620031        0.00040332        0.00590942        0.00034055        0.05321160
     143         -0.725116        1.000000        0.40580208        0.29912008        0.00011091        0.12562003        0.07263742        0.00030178        0.00612447        0.00021204        0.05648089
     144         -0.724717        1.000000        0.39551810        0.20094738        0.00074644        0.20817824        0.03719583        0.00115685        0.00554647        0.00110265        0.08773774