# Projected DOS for atomic kind C at iteration step i = 36, E(Fermi) =    -0.147424 a.u. -0.147424 a.u.
#     MO Eigenva.u. -0.147424 a.u. [a.u.]      Occupation                 s                py                pz                px               d-2               d-1                d0               d+1               d+2
       1         -0.850214        1.000000        0.84604674        0.00167848        0.00016277        0.00412624        0.00010123        0.00001991        0.13858102        0.00004540        0.00004406
       2         -0.847834        1.000000        0.82262318        0.02602169        0.00001769        0.01587465        0.00039957        0.00001399        0.13095069        0.00003533        0.00063821
       3         -0.847830        1.000000        0.82372140        0.02597290        0.00001173        0.01602767        0.00039571        0.00001138        0.13113473        0.00002783        0.00063100
       4         -0.847175        1.000000        0.81344921        0.01102273        0.00011406        0.03010047        0.00082436        0.00004723        0.12912388        0.00012636        0.00030929
       5         -0.847060        1.000000        0.81171504        0.01919952        0.00040767        0.02244663        0.00059955        0.00009555        0.12821877        0.00010506        0.00051899
       6         -0.845697        1.000000        0.77432839        0.02760407        0.00107200        0.02204724        0.00061806        0.00010786        0.11933796        0.00018139        0.00086088
       7         -0.844728        1.000000        0.74374226        0.02007647        0.00182441        0.03189305        0.00097266        0.00013331        0.11205093        0.00035215        0.00073886
       8         -0.841062        1.000000        0.75668270        0.07718482        0.00025550        0.03485516        0.00252425        0.00005614        0.11113267        0.00007536        0.00233112
       9         -0.841022        1.000000        0.76112660        0.08039888        0.00018580        0.03186276        0.00251878        0.00006614        0.11197319        0.00006232        0.00238990
      10         -0.840703        1.000000        0.75637779        0.04103061        0.00014816        0.06786127        0.00238198        0.00006555        0.11155854        0.00015361        0.00236486
      11         -0.840396        1.000000        0.74206400        0.04047302        0.00027274        0.06501011        0.00233660        0.00011683        0.10930168        0.00029054        0.00242416
      12         -0.840056        1.000000        0.73274614        0.04494145        0.00104703        0.06677627        0.00273176        0.00015823        0.10527461        0.00023312        0.00248116
      13         -0.839360        1.000000        0.69857198        0.04494157        0.00271670        0.06033458        0.00234299        0.00023120        0.09642047        0.00032417        0.00266794
      14         -0.837740        1.000000        0.73419845        0.08431818        0.00010598        0.05160389        0.00268874        0.00006676        0.10450980        0.00014770        0.00431392
      15         -0.837698        1.000000        0.73717356        0.08524232        0.00007914        0.05146299        0.00266246        0.00006135        0.10493317        0.00012880        0.00432874
      16         -0.836886        1.000000        0.69991803        0.03396547        0.00081608        0.09679509        0.00532189        0.00016394        0.09816729        0.00044886        0.00192093
      17         -0.836081        1.000000        0.65524123        0.03174493        0.00414152        0.08773595        0.00493661        0.00022923        0.08369360        0.00059724        0.00190475
      18         -0.835561        1.000000        0.65383837        0.07569419        0.00287437        0.05055670        0.00268883        0.00054471        0.08584207        0.00051306        0.00421872
      19         -0.835553        1.000000        0.66225057        0.07371440        0.00251211        0.05090965        0.00276073        0.00061229        0.08814751        0.00059149        0.00416410
      20         -0.828742        1.000000        0.68573320        0.15121258        0.00000823        0.05793907        0.00920472        0.00001429        0.08687737        0.00002513        0.00710054
      21         -0.828713        1.000000        0.68504909        0.15055803        0.00001331        0.05864054        0.00923567        0.00001465        0.08676874        0.00002964        0.00711314
      22         -0.828012        1.000000        0.66881791        0.08587176        0.00089464        0.11704895        0.00822387        0.00012357        0.08256688        0.00019532        0.00800536
      23         -0.827968        1.000000        0.67967930        0.09011455        0.00043735        0.11258209        0.00753540        0.00022726        0.08509102        0.00021804        0.00857736
      24         -0.827917        1.000000        0.66727345        0.07684497        0.00043871        0.12731356        0.00778415        0.00010343        0.08338569        0.00021219        0.00842889
      25         -0.827639        1.000000        0.66898766        0.08460575        0.00021274        0.11914239        0.00675077        0.00014720        0.08426387        0.00028520        0.00920977
      26         -0.826772        1.000000        0.64055216        0.08867566        0.00236512        0.10343337        0.00796948        0.00046075        0.07543153        0.00053299        0.00784281
      27         -0.826628        1.000000        0.62890093        0.08420187        0.00302830        0.10477441        0.00856042        0.00042634        0.07232629        0.00060527        0.00715751
      28         -0.826507        1.000000        0.63621281        0.09139188        0.00075713        0.10561361        0.00801832        0.00034033        0.07855961        0.00054405        0.00793162
      29         -0.826349        1.000000        0.62332366        0.09582783        0.00112144        0.10162816        0.00835767        0.00041000        0.07593500        0.00060021        0.00760412
      30         -0.825840        1.000000        0.62305656        0.10844203        0.00261879        0.08453711        0.00728002        0.00064539        0.07184350        0.00060753        0.00875406
      31         -0.825766        1.000000        0.61562780        0.09113629        0.00289517        0.09658361        0.00729737        0.00066064        0.07062861        0.00074754        0.00845507
      32         -0.821118        1.000000        0.63016252        0.14792804        0.00023850        0.08883163        0.00856874        0.00018160        0.07255451        0.00027438        0.01401759
      33         -0.820972        1.000000        0.63450423        0.14747555        0.00020641        0.08927590        0.00861508        0.00017532        0.07310694        0.00026800        0.01395903
      34         -0.820804        1.000000        0.63171590        0.05587926        0.00243198        0.16315203        0.01735765        0.00022430        0.06788346        0.00060382        0.00597176
      35         -0.820174        1.000000        0.59002204        0.06040481        0.00106725        0.17515721        0.01689270        0.00027554        0.06663871        0.00072556        0.00593814
      36         -0.819760        1.000000        0.57442667        0.13532856        0.00318680        0.08288920        0.00821182        0.00131702        0.05919958        0.00080336        0.01350891
      37         -0.819534        1.000000        0.58557795        0.13217815        0.00277551        0.08388002        0.00859488        0.00139887        0.06159973        0.00083448        0.01342184
      38         -0.811807        1.000000        0.60342464        0.21367989        0.00013242        0.07607742        0.02194694        0.00013371        0.06030967        0.00009210        0.01303150
      39         -0.811772        1.000000        0.60399453        0.21498316        0.00012715        0.07531189        0.02204413        0.00011430        0.06034042        0.00007736        0.01304599
      40         -0.811305        1.000000        0.59611784        0.10753893        0.00177851        0.16294806        0.01482710        0.00039926        0.05619232        0.00051919        0.01881344
      41         -0.811106        1.000000        0.59444382        0.10779810        0.00070810        0.17416524        0.01478224        0.00029234        0.05838421        0.00037330        0.01950292
      42         -0.811074        1.000000        0.59556450        0.10671254        0.00094726        0.17315317        0.01462864        0.00035007        0.05792151        0.00042211        0.01937933
      43         -0.810752        1.000000        0.56907059        0.10521808        0.00063048        0.17849430        0.01521171        0.00026799        0.05598710        0.00052174        0.01960842
      44         -0.808643        1.000000        0.59211449        0.20825715        0.00006725        0.09101737        0.02055367        0.00008699        0.05690503        0.00011507        0.01782332
      45         -0.808571        1.000000        0.58911770        0.20772649        0.00010305        0.09101476        0.02043735        0.00010120        0.05655977        0.00015592        0.01795522
      46         -0.807929        1.000000        0.58395541        0.08847615        0.00187630        0.18656022        0.02286513        0.00043814        0.05245799        0.00069549        0.01437018
      47         -0.807857        1.000000        0.57293275        0.14666948        0.00233877        0.13132187        0.01324082        0.00080787        0.05005136        0.00068218        0.02313735
      48         -0.807719        1.000000        0.57995992        0.14660325        0.00130920        0.13796382        0.01570617        0.00081503        0.05307118        0.00059975        0.02129194
      49         -0.807675        1.000000        0.58012158        0.07891632        0.00212541        0.18901671        0.02330433        0.00043258        0.05148115        0.00088458        0.01390324
      50         -0.807333        1.000000        0.54796304        0.08511758        0.00117825        0.20610319        0.02420632        0.00034012        0.05088609        0.00069031        0.01384187
      51         -0.807275        1.000000        0.54194317        0.14135229        0.00082403        0.14011667        0.01283688        0.00048476        0.05066465        0.00066668        0.02419526
      52         -0.807175        1.000000        0.54813633        0.14456071        0.00074873        0.13697054        0.01245033        0.00050918        0.05129204        0.00064332        0.02477447
      53         -0.806689        1.000000        0.52096345        0.08557490        0.00162353        0.20268818        0.02367099        0.00048013        0.04733392        0.00104943        0.01389184
      54         -0.806025        1.000000        0.53385978        0.17828682        0.00262985        0.09256297        0.01696494        0.00179135        0.04492500        0.00095803        0.01879770
      55         -0.805808        1.000000        0.53836619        0.18113927        0.00227594        0.08958411        0.01781964        0.00173532        0.04608353        0.00092018        0.01852707
      56         -0.798131        1.000000        0.53843126        0.16846700        0.00071426        0.14668872        0.02313739        0.00040013        0.04319990        0.00050212        0.02628585
      57         -0.798026        1.000000        0.54403385        0.10128921        0.00116436        0.20635870        0.03371720        0.00030654        0.04283343        0.00076284        0.01629834
      58         -0.797875        1.000000        0.53516531        0.19709361        0.00041495        0.12001341        0.01868434        0.00042979        0.04332530        0.00043561        0.03072288
      59         -0.797469        1.000000        0.51805523        0.13817456        0.00204008        0.17575106        0.02779230        0.00116391        0.03902023        0.00089539        0.02185669
      60         -0.797370        1.000000        0.51810950        0.14041310        0.00175134        0.17514758        0.02779846        0.00101255        0.03949193        0.00083927        0.02213893
      61         -0.797175        1.000000        0.52087790        0.18937668        0.00244877        0.11404198        0.01834423        0.00198640        0.03766248        0.00099512        0.03014985
      62         -0.789831        1.000000        0.53509635        0.26765320        0.00001211        0.09396755        0.04002545        0.00002146        0.03755005        0.00003068        0.02233772
      63         -0.789771        1.000000        0.53532614        0.26792615        0.00000965        0.09373349        0.04012010        0.00002100        0.03755489        0.00002926        0.02231509
      64         -0.789084        1.000000        0.52246451        0.13829482        0.00040282        0.21823075        0.02820613        0.00025187        0.03599060        0.00026942        0.03396701
      65         -0.788956        1.000000        0.52562392        0.12156942        0.00089589        0.22366709        0.02673439        0.00035957        0.03514921        0.00058016        0.03366549
      66         -0.788841        1.000000        0.53073948        0.14350337        0.00061540        0.20707953        0.02494570        0.00038145        0.03601972        0.00035468        0.03593531
      67         -0.788552        1.000000        0.51627589        0.13334152        0.00050735        0.22021453        0.02589009        0.00033731        0.03510147        0.00054795        0.03645306
      68         -0.787836        1.000000        0.51599240        0.12136684        0.00187725        0.20106755        0.02633901        0.00082954        0.03262503        0.00115598        0.03000537
      69         -0.787822        1.000000        0.51759925        0.13211804        0.00180826        0.19143225        0.02350710        0.00090590        0.03281965        0.00110475        0.03234003
      70         -0.787460        1.000000        0.51035770        0.25132842        0.00068606        0.09589517        0.03721307        0.00082861        0.03358190        0.00041522        0.02343887
      71         -0.787359        1.000000        0.51396473        0.25288956        0.00053078        0.09511917        0.03769048        0.00081760        0.03411355        0.00040313        0.02340748
      72         -0.786949        1.000000        0.47139591        0.12530695        0.00186816        0.21319545        0.02737645        0.00079462        0.03009860        0.00101885        0.03387022
      73         -0.786880        1.000000        0.46899926        0.12840636        0.00177540        0.20992860        0.02599659        0.00085769        0.02992783        0.00113582        0.03522998
      74         -0.782569        1.000000        0.49970446        0.23068077        0.00030816        0.13486132        0.03314957        0.00025493        0.03084252        0.00027684        0.03667709
      75         -0.782263        1.000000        0.50946028        0.24459786        0.00014090        0.11970727        0.03409863        0.00022726        0.03158391        0.00023394        0.03577024
      76         -0.782130        1.000000        0.50326223        0.18483651        0.00126675        0.16716273        0.02662473        0.00090432        0.02917975        0.00072229        0.04056549
      77         -0.781909        1.000000        0.50705308        0.19921198        0.00118849        0.15459967        0.02255114        0.00111370        0.02936263        0.00074609        0.04444746
      78         -0.781892        1.000000        0.49648108        0.11540853        0.00107211        0.24003604        0.04496402        0.00038001        0.02962987        0.00069408        0.02481400
      79         -0.781641        1.000000        0.49387981        0.11366258        0.00123854        0.24294995        0.04562248        0.00034199        0.02918199        0.00065345        0.02472776
      80         -0.781582        1.000000        0.48728889        0.09404158        0.00135797        0.24896474        0.04711281        0.00048682        0.02838479        0.00124239        0.02045496
      81         -0.781114        1.000000        0.46950953        0.18512032        0.00096280        0.16275107        0.02598204        0.00083120        0.02762053        0.00074499        0.04317294
      82         -0.781080        1.000000        0.47541531        0.13994782        0.00153203        0.20945782        0.03787002        0.00069978        0.02721207        0.00100366        0.03201844
      83         -0.781002        1.000000        0.46811396        0.14794384        0.00155954        0.19800097        0.03349009        0.00075698        0.02694989        0.00087345        0.03609306
      84         -0.780088        1.000000        0.46818583        0.22135892        0.00220905        0.11020770        0.03075508        0.00306810        0.02437008        0.00136212        0.03482881
      85         -0.780057        1.000000        0.46373048        0.21803590        0.00254961        0.11244635        0.03000249        0.00315998        0.02340691        0.00141548        0.03483841
      86         -0.768998        1.000000        0.46393253        0.12885996        0.00163265        0.24070153        0.05686454        0.00046339        0.02081507        0.00072855        0.03026801
      87         -0.768748        1.000000        0.46096791        0.19440922        0.00131186        0.17681996        0.04139593        0.00106869        0.02045452        0.00078357        0.04486172
      88         -0.768723        1.000000        0.46186389        0.23269837        0.00055984        0.14097000        0.03223713        0.00097165        0.02145034        0.00057683        0.05345437
      89         -0.768666        1.000000        0.45757621        0.15687446        0.00111577        0.21528376        0.04871553        0.00085956        0.02063233        0.00098715        0.03567230
      90         -0.768504        1.000000        0.46689975        0.23444791        0.00106250        0.13931258        0.03231186        0.00180702        0.02060676        0.00087183        0.05238332
      91         -0.768471        1.000000        0.46065209        0.16943037        0.00121508        0.20291216        0.04652324        0.00114973        0.02044102        0.00096111        0.03834979
      92         -0.763481        1.000000        0.47101094        0.30259990        0.00010525        0.10501372        0.06030003        0.00021644        0.01952425        0.00009927        0.03115794
      93         -0.763432        1.000000        0.47274515        0.30292195        0.00005362        0.10547413        0.06052980        0.00014876        0.01966228        0.00007353        0.03136880
      94         -0.762879        1.000000        0.46053624        0.15109922        0.00066141        0.24011677        0.03694007        0.00046802        0.01849813        0.00068079        0.05150232
      95         -0.762678        1.000000        0.46193965        0.14939486        0.00075893        0.24761691        0.03709674        0.00059414        0.01835848        0.00067600        0.05333565
      96         -0.762631        1.000000        0.45725506        0.15470877        0.00088307        0.24368671        0.03993501        0.00052747        0.01805658        0.00050007        0.05091908
      97         -0.762463        1.000000        0.46199984        0.14279840        0.00068048        0.24919500        0.03630217        0.00048842        0.01842104        0.00074684        0.05119625
      98         -0.760355        1.000000        0.46316747        0.29536280        0.00005959        0.11241255        0.05777567        0.00011498        0.01821663        0.00011000        0.03698318
      99         -0.760215        1.000000        0.46526386        0.29663475        0.00003701        0.11124694        0.05819144        0.00009290        0.01829703        0.00009458        0.03691362
     100         -0.759368        1.000000        0.44836902        0.14690610        0.00135285        0.23509091        0.03985651        0.00086882        0.01613583        0.00103650        0.04981627
     101         -0.759315        1.000000        0.45456487        0.17934806        0.00105202        0.20396287        0.02764255        0.00103340        0.01641881        0.00094005        0.06133952
     102         -0.759236        1.000000        0.43851564        0.12575913        0.00150193        0.25631771        0.05333255        0.00070400        0.01574842        0.00114736        0.03849473
     103         -0.759174        1.000000        0.45028140        0.13877066        0.00175969        0.24274991        0.04348521        0.00091525        0.01572272        0.00104549        0.04789207
     104         -0.758896        1.000000        0.43915707        0.12339420        0.00177596        0.25676165        0.05258271        0.00074798        0.01541621        0.00110517        0.03948350
     105         -0.758781        1.000000        0.44357288        0.12696168        0.00117714        0.25927566        0.04958991        0.00072219        0.01602409        0.00116150        0.04091194
     106         -0.758683        1.000000        0.42676793        0.17046120        0.00151013        0.21550814        0.03318172        0.00122306        0.01483053        0.00105376        0.06149089
     107         -0.758558        1.000000        0.43134191        0.17853629        0.00123780        0.20933358        0.02972771        0.00121824        0.01530046        0.00104155        0.06537104
     108         -0.757996        1.000000        0.42500446        0.27085053        0.00109987        0.10663184        0.05318600        0.00237398        0.01430653        0.00096258        0.03556228
     109         -0.757391        1.000000        0.43794891        0.27268274        0.00074735        0.10500761        0.05450373        0.00214282        0.01519791        0.00087862        0.03646370
     110         -0.750666        1.000000        0.43307911        0.24209829        0.00050099        0.16233631        0.04970416        0.00042591        0.01335311        0.00035575        0.05841453
     111         -0.750302        1.000000        0.44324237        0.10412831        0.00196397        0.28411924        0.07848498        0.00028926        0.01271678        0.00049982        0.03205570
     112         -0.750147        1.000000        0.43642867        0.23353532        0.00062981        0.16576785        0.04073640        0.00109402        0.01304445        0.00068444        0.06497613
     113         -0.750099        1.000000        0.44140181        0.22874071        0.00085861        0.16863316        0.03529550        0.00113863        0.01279782        0.00078833        0.06893104
     114         -0.749903        1.000000        0.43855446        0.25705669        0.00024530        0.14517849        0.04625150        0.00046171        0.01359012        0.00039323        0.06218733
     115         -0.749762        1.000000        0.43719318        0.12410469        0.00217801        0.25466872        0.07477883        0.00048809        0.01192546        0.00086622        0.03466781
     116         -0.749508        1.000000        0.42359226        0.10642041        0.00069506        0.29866277        0.07580139        0.00037965        0.01294555        0.00102239        0.03078302
     117         -0.748927        1.000000        0.40580338        0.22662773        0.00081185        0.16013449        0.03870300        0.00142472        0.01161925        0.00089483        0.06782639
     118         -0.748899        1.000000        0.41509484        0.12825997        0.00091523        0.27169174        0.06629295        0.00085942        0.01223040        0.00149558        0.03744512
     119         -0.748855        1.000000        0.41274840        0.21146844        0.00111016        0.17462700        0.04431025        0.00184019        0.01141070        0.00112137        0.06114745
     120         -0.748473        1.000000        0.41439752        0.23899349        0.00151771        0.14299206        0.04271731        0.00299536        0.01051446        0.00136422        0.06026766
     121         -0.748151        1.000000        0.41973130        0.25124608        0.00151936        0.12597387        0.04725269        0.00403215        0.01038450        0.00162728        0.05580106
     122         -0.734765        1.000000        0.42148327        0.09858586        0.00219255        0.28651849        0.09726404        0.00023229        0.00780040        0.00053910        0.03341053
     123         -0.734107        1.000000        0.41032226        0.25601628        0.00070815        0.15185420        0.04791364        0.00155551        0.00773573        0.00075754        0.07893979
     124         -0.734021        1.000000        0.40079800        0.25295329        0.00059507        0.15280995        0.04754089        0.00132161        0.00762865        0.00070165        0.07886604
     125         -0.733782        1.000000        0.41957559        0.25053656        0.00069221        0.16183520        0.05044395        0.00205627        0.00772619        0.00095330        0.07433219
     126         -0.733443        1.000000        0.40146477        0.24363155        0.00037377        0.15437056        0.05003806        0.00085932        0.00793917        0.00055813        0.07862143
     127         -0.733206        1.000000        0.39156662        0.11191907        0.00072185        0.30370962        0.09220737        0.00061678        0.00783175        0.00144634        0.03420521
     128         -0.732582        1.000000        0.42213278        0.32337915        0.00002403        0.11780256        0.07916500        0.00006044        0.00785853        0.00004542        0.04302535
     129         -0.732570        1.000000        0.42331241        0.32570895        0.00001371        0.11611060        0.07996096        0.00003946        0.00788075        0.00003328        0.04232921
     130         -0.731911        1.000000        0.42118169        0.17028489        0.00054595        0.26332505        0.05194236        0.00050787        0.00746912        0.00038324        0.06846712
     131         -0.731699        1.000000        0.41788903        0.15860929        0.00082284        0.26547727        0.05511159        0.00056221        0.00714565        0.00056090        0.06544970
     132         -0.731543        1.000000        0.41009853        0.16261270        0.00037190        0.26935634        0.05011697        0.00034930        0.00733978        0.00063652        0.07034885
     133         -0.731245        1.000000        0.41744113        0.16758024        0.00032154        0.26531782        0.04918784        0.00048015        0.00743267        0.00046666        0.07107264
     134         -0.730306        1.000000        0.40454241        0.16136205        0.00191427        0.24341110        0.04683576        0.00161366        0.00623324        0.00128576        0.06867550
     135         -0.730296        1.000000        0.40255647        0.16868997        0.00191405        0.23298566        0.05142270        0.00160384        0.00617446        0.00129554        0.06357111
     136         -0.730200        1.000000        0.40470392        0.30192448        0.00037382        0.12457855        0.07456217        0.00110884        0.00677657        0.00049693        0.04496483
     137         -0.730021        1.000000        0.41264978        0.30709584        0.00025272        0.11882427        0.07612066        0.00092055        0.00698462        0.00039105        0.04499827
     138         -0.729821        1.000000        0.38750162        0.15328800        0.00119994        0.25393177        0.04983191        0.00109688        0.00632870        0.00153535        0.06473381
     139         -0.729691        1.000000        0.38834633        0.15620983        0.00099174        0.25246095        0.04912538        0.00097877        0.00645077        0.00141218        0.06488415
     140         -0.725346        1.000000        0.40731961        0.16126383        0.00172467        0.23835880        0.08115666        0.00058649        0.00558976        0.00062547        0.04819868
     141         -0.725315        1.000000        0.41101834        0.12240833        0.00185425        0.28058588        0.08191266        0.00068370        0.00564103        0.00068423        0.04763379
     142         -0.725207        1.000000        0.40370958        0.26057282        0.00060111        0.16002868        0.07617571        0.00040432        0.00590851        0.00034188        0.05323606
     143         -0.725117        1.000000        0.40577737        0.29917210        0.00011099        0.12556203        0.07258856        0.00030473        0.00612345        0.00021308        0.05652472
     144         -0.724719        1.000000        0.39551077        0.20091902        0.00074845        0.20822225        0.03718868        0.00116076        0.00554558        0.00110436        0.08775445