 DBCSR| Multiplication driver                                               XSMM
 DBCSR| Multrec recursion limit                                              512
 DBCSR| Multiplication stack size                                           1000
 DBCSR| Maximum elements for images                                    UNLIMITED
 DBCSR| Multiplicative factor virtual images                                   1
 DBCSR| Multiplication size stacks                                             3
 DBCSR| Number of 3D layers                                               SINGLE
 DBCSR| Use MPI memory allocation                                              T
 DBCSR| Use RMA algorithm                                                      F
 DBCSR| Use Communication thread                                               T
 DBCSR| Communication thread load                                             87


  **** **** ******  **  PROGRAM STARTED AT               2021-10-05 22:43:02.676
 ***** ** ***  *** **   PROGRAM STARTED ON           cresco6x019.portici.enea.it
 **    ****   ******    PROGRAM STARTED BY                                ftotti
 ***** **    ** ** **   PROGRAM PROCESS ID                                858170
  **** **  *******  **  PROGRAM STARTED IN /gporq2/scratch_0/usr/ftotti/Andrea/I
                                           SOLE

 CP2K| version string:                                          CP2K version 6.1
 CP2K| source code revision number:                                    svn:18464
 CP2K| cp2kflags: libint fftw3 parallel mpi3 scalapack xsmm mkl                 
 CP2K| is freely available from                            https://www.cp2k.org/
 CP2K| Program compiled at                           Fri Feb 8 15:10:36 CET 2019
 CP2K| Program compiled on                           cresco6x001.portici.enea.it
 CP2K| Program compiled for                       CRESCO6_ifort_intelmpi_libxsmm
 CP2K| Data directory path             /gporq2/scratch_0/usr/gusso/cp2k-6.1/data
 CP2K| Input file name                                          10anelli.restart
 
 GLOBAL| Force Environment number                                              1
 GLOBAL| Basis set file name            /afs/enea.it/por/user/ftotti/work/cp2k-d
 GLOBAL| Potential file name            /afs/enea.it/por/user/ftotti/work/cp2k-d
 GLOBAL| MM Potential file name                                     MM_POTENTIAL
 GLOBAL| Coordinate file name                                       10anelli.xyz
 GLOBAL| Method name                                                        CP2K
 GLOBAL| Project name                                                   10anelli
 GLOBAL| Preferred FFT library                                             FFTW3
 GLOBAL| Preferred diagonalization lib.                                       SL
 GLOBAL| Run type                                                        GEO_OPT
 GLOBAL| All-to-all communication in single precision                          F
 GLOBAL| FFTs using library dependent lengths                                  F
 GLOBAL| Global print level                                               MEDIUM
 GLOBAL| Total number of message passing processes                           192
 GLOBAL| Number of threads for this process                                    1
 GLOBAL| This output is from process                                           0
 GLOBAL| CPU model name :  Intel(R) Xeon(R) Platinum 8160 CPU @ 2.10GHz

 MEMORY| system memory details [Kb]
 MEMORY|                        rank 0           min           max       average
 MEMORY| MemTotal            197583200     197579460     197583200     197582217
 MEMORY| MemFree             179437484     177798588     179734188     179130327
 MEMORY| Buffers                    20            20            32            26
 MEMORY| Cached                1453160       1320184       3020696       1780130
 MEMORY| Slab                   729780        708440        729780        718478
 MEMORY| SReclaimable           255944        240256        266392        251312
 MEMORY| MemLikelyFree       181146608     181085708     181303344     181161795


 *** Fundamental physical constants (SI units) ***

 *** Literature: B. J. Mohr and B. N. Taylor,
 ***             CODATA recommended values of the fundamental physical
 ***             constants: 2006, Web Version 5.1
 ***             http://physics.nist.gov/constants

 Speed of light in vacuum [m/s]                             2.99792458000000E+08
 Magnetic constant or permeability of vacuum [N/A**2]       1.25663706143592E-06
 Electric constant or permittivity of vacuum [F/m]          8.85418781762039E-12
 Planck constant (h) [J*s]                                  6.62606896000000E-34
 Planck constant (h-bar) [J*s]                              1.05457162825177E-34
 Elementary charge [C]                                      1.60217648700000E-19
 Electron mass [kg]                                         9.10938215000000E-31
 Electron g factor [ ]                                     -2.00231930436220E+00
 Proton mass [kg]                                           1.67262163700000E-27
 Fine-structure constant                                    7.29735253760000E-03
 Rydberg constant [1/m]                                     1.09737315685270E+07
 Avogadro constant [1/mol]                                  6.02214179000000E+23
 Boltzmann constant [J/K]                                   1.38065040000000E-23
 Atomic mass unit [kg]                                      1.66053878200000E-27
 Bohr radius [m]                                            5.29177208590000E-11

 *** Conversion factors ***

 [u] -> [a.u.]                                              1.82288848426455E+03
 [Angstrom] -> [Bohr] = [a.u.]                              1.88972613288564E+00
 [a.u.] = [Bohr] -> [Angstrom]                              5.29177208590000E-01
 [a.u.] -> [s]                                              2.41888432650478E-17
 [a.u.] -> [fs]                                             2.41888432650478E-02
 [a.u.] -> [J]                                              4.35974393937059E-18
 [a.u.] -> [N]                                              8.23872205491840E-08
 [a.u.] -> [K]                                              3.15774647902944E+05
 [a.u.] -> [kJ/mol]                                         2.62549961709828E+03
 [a.u.] -> [kcal/mol]                                       6.27509468713739E+02
 [a.u.] -> [Pa]                                             2.94210107994716E+13
 [a.u.] -> [bar]                                            2.94210107994716E+08
 [a.u.] -> [atm]                                            2.90362800883016E+08
 [a.u.] -> [eV]                                             2.72113838565563E+01
 [a.u.] -> [Hz]                                             6.57968392072181E+15
 [a.u.] -> [1/cm] (wave numbers)                            2.19474631370540E+05
 [a.u./Bohr**2] -> [1/cm]                                   5.14048714338585E+03
 

 CELL_TOP| Volume [angstrom^3]:                                        96808.702
 CELL_TOP| Vector a [angstrom    39.962     0.000     0.000    |a| =      39.962
 CELL_TOP| Vector b [angstrom   -19.981    34.608     0.000    |b| =      39.962
 CELL_TOP| Vector c [angstrom     0.000     0.000    70.000    |c| =      70.000
 CELL_TOP| Angle (b,c), alpha [degree]:                                   90.000
 CELL_TOP| Angle (a,c), beta  [degree]:                                   90.000
 CELL_TOP| Angle (a,b), gamma [degree]:                                  120.000
 CELL_TOP| Numerically orthorhombic:                                          NO
 
 GENERATE|  Preliminary Number of Bonds generated:                             0
 GENERATE|  Achieved consistency in connectivity generation.

 CELL| Volume [angstrom^3]:                                            96808.702
 CELL| Vector a [angstrom]:      39.962     0.000     0.000    |a| =      39.962
 CELL| Vector b [angstrom]:     -19.981    34.608     0.000    |b| =      39.962
 CELL| Vector c [angstrom]:       0.000     0.000    70.000    |c| =      70.000
 CELL| Angle (b,c), alpha [degree]:                                       90.000
 CELL| Angle (a,c), beta  [degree]:                                       90.000
 CELL| Angle (a,b), gamma [degree]:                                      120.000
 CELL| Numerically orthorhombic:                                              NO

 CELL_REF| Volume [angstrom^3]:                                        96808.702
 CELL_REF| Vector a [angstrom    39.962     0.000     0.000    |a| =      39.962
 CELL_REF| Vector b [angstrom   -19.981    34.608     0.000    |b| =      39.962
 CELL_REF| Vector c [angstrom     0.000     0.000    70.000    |c| =      70.000
 CELL_REF| Angle (b,c), alpha [degree]:                                   90.000
 CELL_REF| Angle (a,c), beta  [degree]:                                   90.000
 CELL_REF| Angle (a,b), gamma [degree]:                                  120.000
 CELL_REF| Numerically orthorhombic:                                          NO

 *******************************************************************************
 *******************************************************************************
 **                                                                           **
 **     #####                         ##              ##                      **
 **    ##   ##            ##          ##              ##                      **
 **   ##     ##                       ##            ######                    **
 **   ##     ##  ##   ##  ##   #####  ##  ##   ####   ##    #####    #####    **
 **   ##     ##  ##   ##  ##  ##      ## ##   ##      ##   ##   ##  ##   ##   **
 **   ##  ## ##  ##   ##  ##  ##      ####     ###    ##   ######   ######    **
 **    ##  ###   ##   ##  ##  ##      ## ##      ##   ##   ##       ##        **
 **     #######   #####   ##   #####  ##  ##  ####    ##    #####   ##        **
 **           ##                                                    ##        **
 **                                                                           **
 **                                                ... make the atoms dance   **
 **                                                                           **
 **            Copyright (C) by CP2K developers group (2000 - 2018)           **
 **                                                                           **
 *******************************************************************************

 DFT| Spin unrestricted (spin-polarized) Kohn-Sham calculation               UKS
 DFT| Multiplicity                                                             1
 DFT| Number of spin states                                                    2
 DFT| Charge                                                                   0
 DFT| Self-interaction correction (SIC)                                       NO
 DFT| Cutoffs: density                                              1.000000E-10
 DFT|          gradient                                             1.000000E-10
 DFT|          tau                                                  1.000000E-09
 DFT|          cutoff_smoothing_range                               0.000000E+00
 DFT| XC density smoothing                                                  NONE
 DFT| XC derivatives                                                          PW
 FUNCTIONAL| ROUTINE=NEW
 FUNCTIONAL| TPSS:
 FUNCTIONAL| J. Tao, J.P.Perdew, V.N.Staroverov, E.Scuseria PRL, 91, 146401 (200
 FUNCTIONAL| 3) {LSD version}                                                   
 FUNCTIONAL| PBE:
 FUNCTIONAL| revPBE, Yingkay Zhang and Weitao Yang, Phys. Rev. Letter, vol 80,n 
 FUNCTIONAL| 4, p. 890, (1998){spin polarized}                                  
 vdW POTENTIAL|                                             Non-local Functional
 vdW POTENTIAL| Implementation: G. Roman-Perez, J. Soler, PRL 103: 096102 (2009)
 vdW POTENTIAL|                       T. Thonhauser et al, PRB 76: 125112 (2007)
 vdW POTENTIAL|       R. Sabatini et al, J.Phys:Condens Matter 24: 424209 (2012)
 vdW POTENTIAL| Based on QE implementation by Brian Kolb, Timo Thonhauser (2009)
 vdW POTENTIAL| RVV10 Functional:    R. Sabatini et al, PRB 87: 041108(R) (2013)

 QS| Method:                                                                 GPW
 QS| Density plane wave grid type                        NON-SPHERICAL FULLSPACE
 QS| Number of grid levels:                                                    5
 QS| Density cutoff [a.u.]:                                                250.0
 QS| Multi grid cutoff [a.u.]: 1) grid level                               250.0
 QS|                           2) grid level                                83.3
 QS|                           3) grid level                                27.8
 QS|                           4) grid level                                 9.3
 QS|                           5) grid level                                 3.1
 QS| Grid level progression factor:                                          3.0
 QS| Relative density cutoff [a.u.]:                                        27.5
 QS| Consistent realspace mapping and integration 
 QS| Interaction thresholds: eps_pgf_orb:                                1.0E-05
 QS|                         eps_filter_matrix:                          0.0E+00
 QS|                         eps_core_charge:                            1.0E-12
 QS|                         eps_rho_gspace:                             1.0E-10
 QS|                         eps_rho_rspace:                             1.0E-10
 QS|                         eps_gvg_rspace:                             1.0E-05
 QS|                         eps_ppl:                                    1.0E-02
 QS|                         eps_ppnl:                                   1.0E-07


 ATOMIC KIND INFORMATION

  1. Atomic kind: C                                     Number of atoms:     492

     Orbital Basis Set                                        DZVP-MOLOPT-SR-GTH

       Number of orbital shell sets:                                           1
       Number of orbital shells:                                               5
       Number of primitive Cartesian functions:                                5
       Number of Cartesian basis functions:                                   14
       Number of spherical basis functions:                                   13
       Norm type:                                                              2

       Normalised Cartesian orbitals:

                        Set   Shell   Orbital            Exponent    Coefficient

                          1       1    2s                5.605331       0.322515
                                                         2.113016       0.213043
                                                         0.769911      -0.209686
                                                         0.348157      -0.219794
                                                         0.128212      -0.022789

                          1       2    3s                5.605331       0.552234
                                                         2.113016       0.082072
                                                         0.769911       0.007843
                                                         0.348157       0.136893
                                                         0.128212       0.074283

                          1       3    3px               5.605331      -0.703879
                                                         2.113016      -0.642521
                                                         0.769911      -0.374851
                                                         0.348157      -0.139743
                                                         0.128212      -0.027849
                          1       3    3py               5.605331      -0.703879
                                                         2.113016      -0.642521
                                                         0.769911      -0.374851
                                                         0.348157      -0.139743
                                                         0.128212      -0.027849
                          1       3    3pz               5.605331      -0.703879
                                                         2.113016      -0.642521
                                                         0.769911      -0.374851
                                                         0.348157      -0.139743
                                                         0.128212      -0.027849

                          1       4    4px               5.605331      -0.480376
                                                         2.113016      -0.552894
                                                         0.769911      -0.316145
                                                         0.348157       0.210505
                                                         0.128212       0.076095
                          1       4    4py               5.605331      -0.480376
                                                         2.113016      -0.552894
                                                         0.769911      -0.316145
                                                         0.348157       0.210505
                                                         0.128212       0.076095
                          1       4    4pz               5.605331      -0.480376
                                                         2.113016      -0.552894
                                                         0.769911      -0.316145
                                                         0.348157       0.210505
                                                         0.128212       0.076095

                          1       5    4dx2              5.605331       0.640026
                                                         2.113016       0.274300
                                                         0.769911       0.446711
                                                         0.348157       0.028674
                                                         0.128212       0.029790
                          1       5    4dxy              5.605331       1.108557
                                                         2.113016       0.475102
                                                         0.769911       0.773726
                                                         0.348157       0.049666
                                                         0.128212       0.051599
                          1       5    4dxz              5.605331       1.108557
                                                         2.113016       0.475102
                                                         0.769911       0.773726
                                                         0.348157       0.049666
                                                         0.128212       0.051599
                          1       5    4dy2              5.605331       0.640026
                                                         2.113016       0.274300
                                                         0.769911       0.446711
                                                         0.348157       0.028674
                                                         0.128212       0.029790
                          1       5    4dyz              5.605331       1.108557
                                                         2.113016       0.475102
                                                         0.769911       0.773726
                                                         0.348157       0.049666
                                                         0.128212       0.051599
                          1       5    4dz2              5.605331       0.640026
                                                         2.113016       0.274300
                                                         0.769911       0.446711
                                                         0.348157       0.028674
                                                         0.128212       0.029790

     GTH Potential information for                                    GTH-PBE-q4

       Description:                       Goedecker-Teter-Hutter pseudopotential
                                           Goedecker et al., PRB 54, 1703 (1996)
                                          Hartwigsen et al., PRB 58, 3641 (1998)
                                                      Krack, TCA 114, 145 (2005)

       Gaussian exponent of the core charge distribution:               4.364419
       Electronic configuration (s p d ...):                               2   2

       Parameters of the local part of the GTH pseudopotential:

                          rloc        C1          C2          C3          C4
                        0.338471   -8.803674    1.339211

       Parameters of the non-local part of the GTH pseudopotential:

                   l      r(l)      h(i,j,l)

                   0    0.302576    9.622487
                   1    0.291507

  2. Atomic kind: C1                                    Number of atoms:      10

     Orbital Basis Set                                        DZVP-MOLOPT-SR-GTH

       Number of orbital shell sets:                                           1
       Number of orbital shells:                                               5
       Number of primitive Cartesian functions:                                5
       Number of Cartesian basis functions:                                   14
       Number of spherical basis functions:                                   13
       Norm type:                                                              2

       Normalised Cartesian orbitals:

                        Set   Shell   Orbital            Exponent    Coefficient

                          1       1    2s                5.605331       0.322515
                                                         2.113016       0.213043
                                                         0.769911      -0.209686
                                                         0.348157      -0.219794
                                                         0.128212      -0.022789

                          1       2    3s                5.605331       0.552234
                                                         2.113016       0.082072
                                                         0.769911       0.007843
                                                         0.348157       0.136893
                                                         0.128212       0.074283

                          1       3    3px               5.605331      -0.703879
                                                         2.113016      -0.642521
                                                         0.769911      -0.374851
                                                         0.348157      -0.139743
                                                         0.128212      -0.027849
                          1       3    3py               5.605331      -0.703879
                                                         2.113016      -0.642521
                                                         0.769911      -0.374851
                                                         0.348157      -0.139743
                                                         0.128212      -0.027849
                          1       3    3pz               5.605331      -0.703879
                                                         2.113016      -0.642521
                                                         0.769911      -0.374851
                                                         0.348157      -0.139743
                                                         0.128212      -0.027849

                          1       4    4px               5.605331      -0.480376
                                                         2.113016      -0.552894
                                                         0.769911      -0.316145
                                                         0.348157       0.210505
                                                         0.128212       0.076095
                          1       4    4py               5.605331      -0.480376
                                                         2.113016      -0.552894
                                                         0.769911      -0.316145
                                                         0.348157       0.210505
                                                         0.128212       0.076095
                          1       4    4pz               5.605331      -0.480376
                                                         2.113016      -0.552894
                                                         0.769911      -0.316145
                                                         0.348157       0.210505
                                                         0.128212       0.076095

                          1       5    4dx2              5.605331       0.640026
                                                         2.113016       0.274300
                                                         0.769911       0.446711
                                                         0.348157       0.028674
                                                         0.128212       0.029790
                          1       5    4dxy              5.605331       1.108557
                                                         2.113016       0.475102
                                                         0.769911       0.773726
                                                         0.348157       0.049666
                                                         0.128212       0.051599
                          1       5    4dxz              5.605331       1.108557
                                                         2.113016       0.475102
                                                         0.769911       0.773726
                                                         0.348157       0.049666
                                                         0.128212       0.051599
                          1       5    4dy2              5.605331       0.640026
                                                         2.113016       0.274300
                                                         0.769911       0.446711
                                                         0.348157       0.028674
                                                         0.128212       0.029790
                          1       5    4dyz              5.605331       1.108557
                                                         2.113016       0.475102
                                                         0.769911       0.773726
                                                         0.348157       0.049666
                                                         0.128212       0.051599
                          1       5    4dz2              5.605331       0.640026
                                                         2.113016       0.274300
                                                         0.769911       0.446711
                                                         0.348157       0.028674
                                                         0.128212       0.029790

     GTH Potential information for                                    GTH-PBE-q4

       Description:                       Goedecker-Teter-Hutter pseudopotential
                                           Goedecker et al., PRB 54, 1703 (1996)
                                          Hartwigsen et al., PRB 58, 3641 (1998)
                                                      Krack, TCA 114, 145 (2005)

       Gaussian exponent of the core charge distribution:               4.364419
       Electronic configuration (s p d ...):                               2   2

       Parameters of the local part of the GTH pseudopotential:

                          rloc        C1          C2          C3          C4
                        0.338471   -8.803674    1.339211

       Parameters of the non-local part of the GTH pseudopotential:

                   l      r(l)      h(i,j,l)

                   0    0.302576    9.622487
                   1    0.291507

  3. Atomic kind: C2                                    Number of atoms:      10

     Orbital Basis Set                                        DZVP-MOLOPT-SR-GTH

       Number of orbital shell sets:                                           1
       Number of orbital shells:                                               5
       Number of primitive Cartesian functions:                                5
       Number of Cartesian basis functions:                                   14
       Number of spherical basis functions:                                   13
       Norm type:                                                              2

       Normalised Cartesian orbitals:

                        Set   Shell   Orbital            Exponent    Coefficient

                          1       1    2s                5.605331       0.322515
                                                         2.113016       0.213043
                                                         0.769911      -0.209686
                                                         0.348157      -0.219794
                                                         0.128212      -0.022789

                          1       2    3s                5.605331       0.552234
                                                         2.113016       0.082072
                                                         0.769911       0.007843
                                                         0.348157       0.136893
                                                         0.128212       0.074283

                          1       3    3px               5.605331      -0.703879
                                                         2.113016      -0.642521
                                                         0.769911      -0.374851
                                                         0.348157      -0.139743
                                                         0.128212      -0.027849
                          1       3    3py               5.605331      -0.703879
                                                         2.113016      -0.642521
                                                         0.769911      -0.374851
                                                         0.348157      -0.139743
                                                         0.128212      -0.027849
                          1       3    3pz               5.605331      -0.703879
                                                         2.113016      -0.642521
                                                         0.769911      -0.374851
                                                         0.348157      -0.139743
                                                         0.128212      -0.027849

                          1       4    4px               5.605331      -0.480376
                                                         2.113016      -0.552894
                                                         0.769911      -0.316145
                                                         0.348157       0.210505
                                                         0.128212       0.076095
                          1       4    4py               5.605331      -0.480376
                                                         2.113016      -0.552894
                                                         0.769911      -0.316145
                                                         0.348157       0.210505
                                                         0.128212       0.076095
                          1       4    4pz               5.605331      -0.480376
                                                         2.113016      -0.552894
                                                         0.769911      -0.316145
                                                         0.348157       0.210505
                                                         0.128212       0.076095

                          1       5    4dx2              5.605331       0.640026
                                                         2.113016       0.274300
                                                         0.769911       0.446711
                                                         0.348157       0.028674
                                                         0.128212       0.029790
                          1       5    4dxy              5.605331       1.108557
                                                         2.113016       0.475102
                                                         0.769911       0.773726
                                                         0.348157       0.049666
                                                         0.128212       0.051599
                          1       5    4dxz              5.605331       1.108557
                                                         2.113016       0.475102
                                                         0.769911       0.773726
                                                         0.348157       0.049666
                                                         0.128212       0.051599
                          1       5    4dy2              5.605331       0.640026
                                                         2.113016       0.274300
                                                         0.769911       0.446711
                                                         0.348157       0.028674
                                                         0.128212       0.029790
                          1       5    4dyz              5.605331       1.108557
                                                         2.113016       0.475102
                                                         0.769911       0.773726
                                                         0.348157       0.049666
                                                         0.128212       0.051599
                          1       5    4dz2              5.605331       0.640026
                                                         2.113016       0.274300
                                                         0.769911       0.446711
                                                         0.348157       0.028674
                                                         0.128212       0.029790

     GTH Potential information for                                    GTH-PBE-q4

       Description:                       Goedecker-Teter-Hutter pseudopotential
                                           Goedecker et al., PRB 54, 1703 (1996)
                                          Hartwigsen et al., PRB 58, 3641 (1998)
                                                      Krack, TCA 114, 145 (2005)

       Gaussian exponent of the core charge distribution:               4.364419
       Electronic configuration (s p d ...):                               2   2

       Parameters of the local part of the GTH pseudopotential:

                          rloc        C1          C2          C3          C4
                        0.338471   -8.803674    1.339211

       Parameters of the non-local part of the GTH pseudopotential:

                   l      r(l)      h(i,j,l)

                   0    0.302576    9.622487
                   1    0.291507

  4. Atomic kind: H                                     Number of atoms:      42

     Orbital Basis Set                                        DZVP-MOLOPT-SR-GTH

       Number of orbital shell sets:                                           1
       Number of orbital shells:                                               3
       Number of primitive Cartesian functions:                                5
       Number of Cartesian basis functions:                                    5
       Number of spherical basis functions:                                    5
       Norm type:                                                              2

       Normalised Cartesian orbitals:

                        Set   Shell   Orbital            Exponent    Coefficient

                          1       1    2s               10.068468      -0.133023
                                                         2.680223      -0.177618
                                                         0.791502      -0.258419
                                                         0.239116      -0.107525
                                                         0.082193      -0.014019

                          1       2    3s               10.068468       0.344673
                                                         2.680223       1.819821
                                                         0.791502      -0.999069
                                                         0.239116       0.017430
                                                         0.082193       0.082660

                          1       3    3px              10.068468       0.155326
                                                         2.680223       0.367157
                                                         0.791502       0.311480
                                                         0.239116       0.080105
                                                         0.082193       0.033440
                          1       3    3py              10.068468       0.155326
                                                         2.680223       0.367157
                                                         0.791502       0.311480
                                                         0.239116       0.080105
                                                         0.082193       0.033440
                          1       3    3pz              10.068468       0.155326
                                                         2.680223       0.367157
                                                         0.791502       0.311480
                                                         0.239116       0.080105
                                                         0.082193       0.033440

     GTH Potential information for                                    GTH-PBE-q1

       Description:                       Goedecker-Teter-Hutter pseudopotential
                                           Goedecker et al., PRB 54, 1703 (1996)
                                          Hartwigsen et al., PRB 58, 3641 (1998)
                                                      Krack, TCA 114, 145 (2005)

       Gaussian exponent of the core charge distribution:              12.500000
       Electronic configuration (s p d ...):                                   1

       Parameters of the local part of the GTH pseudopotential:

                          rloc        C1          C2          C3          C4
                        0.200000   -4.178900    0.724463


 MOLECULE KIND INFORMATION


 All atoms are their own molecule, skipping detailed information


 TOTAL NUMBERS AND MAXIMUM NUMBERS

  Total number of            - Atomic kinds:                                   4
                             - Atoms:                                        554
                             - Shell sets:                                   554
                             - Shells:                                      2686
                             - Primitive Cartesian functions:               2770
                             - Cartesian basis functions:                   7378
                             - Spherical basis functions:                   6866

  Maximum angular momentum of- Orbital basis functions:                        2
                             - Local part of the GTH pseudopotential:          2
                             - Non-local part of the GTH pseudopotential:      0


 MODULE QUICKSTEP:  ATOMIC COORDINATES IN angstrom

  Atom  Kind  Element       X           Y           Z          Z(eff)       Mass

       1     1 C    6    1.717030   -0.008500   20.462020      4.00      12.0107
       2     1 C    6    1.701900    1.491890   20.462080      4.00      12.0107
       3     1 C    6    4.186850   -0.028910   20.459360      4.00      12.0107
       4     1 C    6    4.151020    1.471010   20.459910      4.00      12.0107
       5     1 C    6    0.395920    2.216840   20.464400      4.00      12.0107
       6     1 C    6    0.365900    3.705120   20.463420      4.00      12.0107
       7     1 C    6    2.863370    2.204410   20.460940      4.00      12.0107
       8     1 C    6    2.818070    3.686840   20.461560      4.00      12.0107
       9     1 C    6   -0.931240    4.414890   20.464730      4.00      12.0107
      10     1 C    6    3.985770    4.388130   20.462700      4.00      12.0107
      11     1 C    6    1.530200    4.409180   20.461860      4.00      12.0107
      12     1 C    6   -0.774250    1.485640   20.467600      4.00      12.0107
      13     1 C    6    5.301810    2.190990   20.460760      4.00      12.0107
      14     1 C    6    2.882220   -0.572250   20.461020      4.00      12.0107
      15     1 C    6    0.419820   -0.576180   20.466160      4.00      12.0107
      16     1 C    6    5.492430   -0.577970   20.458250      4.00      12.0107
      17     1 C    6   -0.960810    5.880880   20.462580      4.00      12.0107
      18     1 C    6    1.520820    5.902600   20.461410      4.00      12.0107
      19     1 C    6   -2.150670    6.531860   20.463260      4.00      12.0107
      20     1 C    6   -2.152950    8.002420   20.461470      4.00      12.0107
      21     1 C    6    0.319330    6.626310   20.461020      4.00      12.0107
      22     1 C    6    0.336940    8.029340   20.460760      4.00      12.0107
      23     1 C    6   -3.336130    8.670270   20.462280      4.00      12.0107
      24     1 C    6    1.571570    8.722760   20.462430      4.00      12.0107
      25     1 C    6   -0.865880    8.748880   20.460140      4.00      12.0107
      26     1 C    6   -3.434120    5.767490   20.466420      4.00      12.0107
      27     1 C    6    2.753790    6.586210   20.462960      4.00      12.0107
      28     1 C    6   -2.196950    3.642680   20.468580      4.00      12.0107
      29     1 C    6   -3.327780   10.142400   20.460620      4.00      12.0107
      30     1 C    6   -0.847640   10.145580   20.459780      4.00      12.0107
      31     1 C    6   -4.605330   10.880500   20.462590      4.00      12.0107
      32     1 C    6   -4.594730   12.242880   20.462360      4.00      12.0107
      33     1 C    6   -2.045900   10.860180   20.459310      4.00      12.0107
      34     1 C    6   -2.045280   12.245750   20.459370      4.00      12.0107
      35     1 C    6   -5.876100   12.980340   20.465300      4.00      12.0107
      36     1 C    6   -0.838820   12.929700   20.460960      4.00      12.0107
      37     1 C    6   -3.318200   12.987950   20.460090      4.00      12.0107
      38     1 C    6   -5.887090   10.106960   20.465720      4.00      12.0107
      39     1 C    6    0.377820   10.840620   20.461480      4.00      12.0107
      40     1 C    6   -4.636950    7.933510   20.465650      4.00      12.0107
      41     1 C    6   -5.862650   14.470650   20.463570      4.00      12.0107
      42     1 C    6   -3.300450   14.468450   20.461180      4.00      12.0107
      43     1 C    6   -7.046460   15.138540   20.464150      4.00      12.0107
      44     1 C    6   -7.052910   16.624530   20.463090      4.00      12.0107
      45     1 C    6   -4.575090   15.212870   20.461950      4.00      12.0107
      46     1 C    6   -4.554330   16.698500   20.462780      4.00      12.0107
      47     1 C    6   -8.246620   17.284030   20.463900      4.00      12.0107
      48     1 C    6   -3.318300   17.389020   20.464760      4.00      12.0107
      49     1 C    6   -5.768230   17.394210   20.462650      4.00      12.0107
      50     1 C    6   -8.331740   14.374440   20.466470      4.00      12.0107
      51     1 C    6   -2.116410   15.133550   20.462710      4.00      12.0107
      52     1 C    6   -7.156390   12.224230   20.469550      4.00      12.0107
      53     1 C    6   -8.258100   18.764840   20.463260      4.00      12.0107
      54     1 C    6   -5.742830   18.793720   20.463420      4.00      12.0107
      55     1 C    6   -9.452300   19.435180   20.464150      4.00      12.0107
      56     1 C    6   -9.460210   20.915450   20.463680      4.00      12.0107
      57     1 C    6   -6.957100   19.498400   20.462910      4.00      12.0107
      58     1 C    6   -6.924180   20.885320   20.463480      4.00      12.0107
      59     1 C    6  -10.627000   21.624460   20.464630      4.00      12.0107
      60     1 C    6   -5.703440   21.572250   20.465630      4.00      12.0107
      61     1 C    6   -8.186290   21.639730   20.462870      4.00      12.0107
      62     1 C    6  -10.743650   18.690000   20.466130      4.00      12.0107
      63     1 C    6   -4.485540   19.496500   20.465480      4.00      12.0107
      64     1 C    6   -9.543760   16.526400   20.466220      4.00      12.0107
      65     1 C    6  -10.621940   23.114900   20.463700      4.00      12.0107
      66     1 C    6   -8.174410   23.093210   20.463350      4.00      12.0107
      67     1 C    6  -11.922120   23.862720   20.464380      4.00      12.0107
      68     1 C    6  -11.935350   25.350180   20.462610      4.00      12.0107
      69     1 C    6   -9.453970   23.808790   20.462790      4.00      12.0107
      70     1 C    6   -9.485450   25.265940   20.462080      4.00      12.0107
      71     1 C    6  -13.233080   26.089210   20.463170      4.00      12.0107
      72     1 C    6   -8.310910   25.944190   20.463210      4.00      12.0107
      73     1 C    6  -10.751960   26.010430   20.461180      4.00      12.0107
      74     1 C    6  -13.115500   23.178270   20.466860      4.00      12.0107
      75     1 C    6   -6.999550   23.771510   20.465260      4.00      12.0107
      76     1 C    6  -11.949960   20.939920   20.466900      4.00      12.0107
      77     1 C    6  -13.282460   27.451460   20.461620      4.00      12.0107
      78     1 C    6  -10.765260   27.467720   20.459840      4.00      12.0107
      79     1 C    6  -14.575570   28.180000   20.463020      4.00      12.0107
      80     1 C    6  -14.592590   29.550190   20.462060      4.00      12.0107
      81     1 C    6  -12.028770   28.187240   20.459390      4.00      12.0107
      82     1 C    6  -12.064800   29.650880   20.458850      4.00      12.0107
      83     1 C    6  -15.923370   30.290610   20.464220      4.00      12.0107
      84     1 C    6  -10.868760   30.365190   20.458480      4.00      12.0107
      85     1 C    6  -13.280490   30.318880   20.459710      4.00      12.0107
      86     1 C    6  -15.834060   27.386860   20.466140      4.00      12.0107
      87     1 C    6   -9.597560   28.136780   20.460100      4.00      12.0107
      88     1 C    6  -14.489800   25.299250   20.466200      4.00      12.0107
      89     1 C    6    6.641250    0.016180   20.456330      4.00      12.0107
      90     1 C    6    6.588800    1.489530   20.460350      4.00      12.0107
      91     1 C    6    9.206590    0.190030   20.468060      4.00      12.0107
      92     1 C    6    9.151300    1.567780   20.470730      4.00      12.0107
      93     1 C    6    5.272660    3.660780   20.463520      4.00      12.0107
      94     1 C    6    7.838920    2.270900   20.467210      4.00      12.0107
      95     1 C    6    7.771250    3.631630   20.470520      4.00      12.0107
      96     1 C    6    9.043140    4.409910   20.476390      4.00      12.0107
      97     1 C    6    6.454860    4.337310   20.467970      4.00      12.0107
      98     1 C    6   10.417050    2.347380   20.475700      4.00      12.0107
      99     1 C    6    7.954140   -0.482290   20.462330      4.00      12.0107
     100     1 C    6   10.512670   -0.378880   20.470620      4.00      12.0107
     101     1 C    6    3.963980    5.877860   20.464440      4.00      12.0107
     102     1 C    6    6.456380    5.817730   20.471550      4.00      12.0107
     103     1 C    6    2.782860    8.005470   20.464370      4.00      12.0107
     104     1 C    6    5.182680    6.577860   20.468800      4.00      12.0107
     105     1 C    6    5.212780    7.986430   20.471630      4.00      12.0107
     106     1 C    6    6.531090    8.682020   20.477570      4.00      12.0107
     107     1 C    6    4.012800    8.712400   20.468940      4.00      12.0107
     108     1 C    6    7.747690    6.533910   20.477260      4.00      12.0107
     109     1 C    6    1.594550   10.136080   20.463650      4.00      12.0107
     110     1 C    6    4.021980   10.124940   20.471730      4.00      12.0107
     111     1 C    6    0.378160   12.246150   20.462820      4.00      12.0107
     112     1 C    6    2.816990   10.847340   20.468530      4.00      12.0107
     113     1 C    6    2.806050   12.258910   20.471390      4.00      12.0107
     114     1 C    6    4.111490   12.978620   20.479000      4.00      12.0107
     115     1 C    6    1.585590   12.952820   20.467960      4.00      12.0107
     116     1 C    6    5.337690   10.830240   20.478270      4.00      12.0107
     117     1 C    6   -0.849970   14.396820   20.463170      4.00      12.0107
     118     1 C    6    1.583940   14.434720   20.472080      4.00      12.0107
     119     1 C    6   -2.054930   16.603980   20.465490      4.00      12.0107
     120     1 C    6    0.418810   15.130410   20.469390      4.00      12.0107
     121     1 C    6    0.436370   16.614650   20.473610      4.00      12.0107
     122     1 C    6    1.737780   17.326420   20.479780      4.00      12.0107
     123     1 C    6   -0.742760   17.311000   20.470900      4.00      12.0107
     124     1 C    6    2.868390   15.132880   20.480190      4.00      12.0107
     125     1 C    6   -3.254720   18.797350   20.466770      4.00      12.0107
     126     1 C    6   -0.745470   18.814300   20.472690      4.00      12.0107
     127     1 C    6   -4.465540   20.907030   20.466960      4.00      12.0107
     128     1 C    6   -2.004720   19.500350   20.469970      4.00      12.0107
     129     1 C    6   -2.011830   20.924200   20.469960      4.00      12.0107
     130     1 C    6   -0.786660   21.641770   20.468200      4.00      12.0107
     131     1 C    6   -3.242860   21.637940   20.469120      4.00      12.0107
     132     1 C    6    0.486530   19.511980   20.474290      4.00      12.0107
     133     1 C    6   -5.727300   23.047600   20.467290      4.00      12.0107
     134     1 C    6   -3.250350   23.072730   20.469590      4.00      12.0107
     135     1 C    6   -7.020470   25.237060   20.465900      4.00      12.0107
     136     1 C    6   -4.464310   23.815270   20.470020      4.00      12.0107
     137     1 C    6   -4.523450   25.229080   20.471050      4.00      12.0107
     138     1 C    6   -3.311730   25.956050   20.469590      4.00      12.0107
     139     1 C    6   -5.858560   25.951020   20.469020      4.00      12.0107
     140     1 C    6   -2.040280   23.791510   20.466340      4.00      12.0107
     141     1 C    6   -8.334890   27.397430   20.462450      4.00      12.0107
     142     1 C    6   -5.888620   27.447220   20.469310      4.00      12.0107
     143     1 C    6   -9.583060   29.593120   20.459270      4.00      12.0107
     144     1 C    6   -7.070970   28.137830   20.465790      4.00      12.0107
     145     1 C    6   -7.108660   29.623560   20.465260      4.00      12.0107
     146     1 C    6   -5.822970   30.337240   20.469840      4.00      12.0107
     147     1 C    6   -8.293370   30.309860   20.461350      4.00      12.0107
     148     1 C    6   -4.592780   28.167530   20.473970      4.00      12.0107
     149     1 C    6   11.704190    0.126360   20.477000      4.00      12.0107
     150     1 C    6   11.719160    1.613660   20.475780      4.00      12.0107
     151     1 C    6   14.156980    0.012340   20.456460      4.00      12.0107
     152     1 C    6   14.165600    1.498670   20.464840      4.00      12.0107
     153     1 C    6   10.357140    3.706790   20.477230      4.00      12.0107
     154     1 C    6   12.906820    2.270650   20.471140      4.00      12.0107
     155     1 C    6   12.908560    3.735930   20.469660      4.00      12.0107
     156     1 C    6   14.095180    4.392550   20.457870      4.00      12.0107
     157     1 C    6   11.624830    4.454600   20.475470      4.00      12.0107
     158     1 C    6   15.337170    2.180150   20.462210      4.00      12.0107
     159     1 C    6   12.969880   -0.509910   20.466000      4.00      12.0107
     160     1 C    6   15.438860   -0.591150   20.464770      4.00      12.0107
     161     1 C    6    9.025990    5.779640   20.479470      4.00      12.0107
     162     1 C    6   11.589220    5.803440   20.475060      4.00      12.0107
     163     1 C    6    7.773880    7.895190   20.479450      4.00      12.0107
     164     1 C    6   10.313410    6.513130   20.480680      4.00      12.0107
     165     1 C    6   10.337680    7.872920   20.480160      4.00      12.0107
     166     1 C    6   11.609160    8.644290   20.464220      4.00      12.0107
     167     1 C    6    9.063830    8.608510   20.481690      4.00      12.0107
     168     1 C    6   12.838630    6.552110   20.462010      4.00      12.0107
     169     1 C    6    6.594290   10.043580   20.480530      4.00      12.0107
     170     1 C    6    9.090870   10.094720   20.479200      4.00      12.0107
     171     1 C    6    5.376460   12.191820   20.481240      4.00      12.0107
     172     1 C    6    7.900930   10.769760   20.481850      4.00      12.0107
     173     1 C    6    7.873020   12.261900   20.479780      4.00      12.0107
     174     1 C    6    9.163520   13.026430   20.462190      4.00      12.0107
     175     1 C    6    6.670580   12.922840   20.482320      4.00      12.0107
     176     1 C    6   10.403220   10.821430   20.460870      4.00      12.0107
     177     1 C    6    4.136940   14.343910   20.483120      4.00      12.0107
     178     1 C    6    6.614430   14.415490   20.481670      4.00      12.0107
     179     1 C    6    2.911820   16.618140   20.483640      4.00      12.0107
     180     1 C    6    5.420710   15.087940   20.486040      4.00      12.0107
     181     1 C    6    5.406250   16.602610   20.486990      4.00      12.0107
     182     1 C    6    6.702080   17.341290   20.474580      4.00      12.0107
     183     1 C    6    4.223600   17.311710   20.486170      4.00      12.0107
     184     1 C    6    7.866490   15.180000   20.468900      4.00      12.0107
     185     1 C    6    1.738210   18.821860   20.478170      4.00      12.0107
     186     1 C    6    4.203800   18.818780   20.478290      4.00      12.0107
     187     1 C    6    0.456510   20.931950   20.469000      4.00      12.0107
     188     1 C    6    2.961050   19.514770   20.474660      4.00      12.0107
     189     1 C    6    2.922540   20.936580   20.460930      4.00      12.0107
     190     1 C    6    4.139860   21.653160   20.440300      4.00      12.0107
     191     1 C    6    1.678360   21.646210   20.459560      4.00      12.0107
     192     1 C    6    5.396470   19.546190   20.463920      4.00      12.0107
     193     1 C    6   -0.807030   23.069770   20.462910      4.00      12.0107
     194     1 C    6    1.653150   23.069700   20.443580      4.00      12.0107
     195     1 C    6   -2.070980   25.224930   20.463450      4.00      12.0107
     196     1 C    6    0.413840   23.781050   20.449080      4.00      12.0107
     197     1 C    6    0.393170   25.204710   20.436760      4.00      12.0107
     198     1 C    6    1.615570   25.916140   20.407720      4.00      12.0107
     199     1 C    6   -0.839130   25.923020   20.448590      4.00      12.0107
     200     1 C    6    2.873290   23.784050   20.416340      4.00      12.0107
     201     1 C    6   -3.291720   27.381000   20.470630      4.00      12.0107
     202     1 C    6   -0.834290   27.344180   20.441470      4.00      12.0107
     203     1 C    6   -4.564270   29.526890   20.478560      4.00      12.0107
     204     1 C    6   -2.052130   28.067640   20.458650      4.00      12.0107
     205     1 C    6   -1.998070   29.477020   20.458620      4.00      12.0107
     206     1 C    6   -0.777670   30.200530   20.428490      4.00      12.0107
     207     1 C    6   -3.278640   30.231630   20.486740      4.00      12.0107
     208     1 C    6    0.397130   28.049960   20.413190      4.00      12.0107
     209     1 C    6   16.609960   -0.032590   20.491370      4.00      12.0107
     210     1 C    6   16.599680    1.449370   20.452880      4.00      12.0107
     211     1 C    6   19.054290    0.003010   20.279590      4.00      12.0107
     212     1 C    6   19.073580    1.501310   20.299360      4.00      12.0107
     213     1 C    6   15.341450    3.640490   20.448460      4.00      12.0107
     214     1 C    6   17.871310    2.228320   20.368880      4.00      12.0107
     215     1 C    6   17.846020    3.655170   20.361870      4.00      12.0107
     216     1 C    6   19.062860    4.366350   20.306730      4.00      12.0107
     217     1 C    6   16.627930    4.387950   20.398940      4.00      12.0107
     218     1 C    6   20.295180    2.186960   20.272520      4.00      12.0107
     219     1 C    6   17.901050   -0.580020   20.374950      4.00      12.0107
     220     1 C    6   20.329440   -0.580350   20.271490      4.00      12.0107
     221     1 C    6   14.115030    5.847370   20.442520      4.00      12.0107
     222     1 C    6   16.585530    5.806570   20.368430      4.00      12.0107
     223     1 C    6   12.809790    8.002980   20.449740      4.00      12.0107
     224     1 C    6   15.278260    6.541590   20.398180      4.00      12.0107
     225     1 C    6   15.267540    8.024690   20.364550      4.00      12.0107
     226     1 C    6   16.561650    8.752530   20.263210      4.00      12.0107
     227     1 C    6   14.089460    8.724660   20.397190      4.00      12.0107
     228     1 C    6   17.785990    6.535970   20.288160      4.00      12.0107
     229     1 C    6   11.595120   10.133510   20.447210      4.00      12.0107
     230     1 C    6   14.090430   10.192960   20.354680      4.00      12.0107
     231     1 C    6   10.398770   12.325790   20.442230      4.00      12.0107
     232     1 C    6   12.897890   10.862190   20.391860      4.00      12.0107
     233     1 C    6   12.907460   12.327450   20.350850      4.00      12.0107
     234     1 C    6   14.156940   13.094920   20.234210      4.00      12.0107
     235     1 C    6   11.610420   13.052500   20.390340      4.00      12.0107
     236     1 C    6   15.366650   10.940900   20.242550      4.00      12.0107
     237     1 C    6    9.160910   14.438810   20.446260      4.00      12.0107
     238     1 C    6   11.608860   14.462570   20.355580      4.00      12.0107
     239     1 C    6    7.884260   16.651290   20.458030      4.00      12.0107
     240     1 C    6   10.374170   15.158530   20.392470      4.00      12.0107
     241     1 C    6   10.372170   16.653830   20.355650      4.00      12.0107
     242     1 C    6   11.663090   17.388950   20.238890      4.00      12.0107
     243     1 C    6    9.192980   17.348920   20.401480      4.00      12.0107
     244     1 C    6   12.895750   15.232880   20.244780      4.00      12.0107
     245     1 C    6    6.693880   18.824650   20.461380      4.00      12.0107
     246     1 C    6    9.223790   18.830070   20.361910      4.00      12.0107
     247     1 C    6    5.384120   20.954200   20.438710      4.00      12.0107
     248     1 C    6    7.944790   19.592170   20.406140      4.00      12.0107
     249     1 C    6    7.912650   20.955730   20.368900      4.00      12.0107
     250     1 C    6    9.173190   21.723730   20.255310      4.00      12.0107
     251     1 C    6    6.598520   21.672350   20.398260      4.00      12.0107
     252     1 C    6   10.491560   19.547100   20.233550      4.00      12.0107
     253     1 C    6    4.112540   23.068570   20.411100      4.00      12.0107
     254     1 C    6    6.586190   23.079570   20.360980      4.00      12.0107
     255     1 C    6    2.842260   25.209600   20.391870      4.00      12.0107
     256     1 C    6    5.349770   23.752020   20.370050      4.00      12.0107
     257     1 C    6    5.329940   25.232310   20.326020      4.00      12.0107
     258     1 C    6    6.607440   25.963240   20.295730      4.00      12.0107
     259     1 C    6    4.039390   25.958170   20.351140      4.00      12.0107
     260     1 C    6    7.881890   23.829850   20.280970      4.00      12.0107
     261     1 C    6    1.616410   27.339110   20.391430      4.00      12.0107
     262     1 C    6    4.063430   27.362500   20.333100      4.00      12.0107
     263     1 C    6    0.416030   29.473610   20.403550      4.00      12.0107
     264     1 C    6    2.838700   28.059670   20.353650      4.00      12.0107
     265     1 C    6    2.838650   29.479610   20.340120      4.00      12.0107
     266     1 C    6    4.043660   30.203010   20.302600      4.00      12.0107
     267     1 C    6    1.627130   30.190960   20.368290      4.00      12.0107
     268     1 C    6    5.285540   28.070340   20.302790      4.00      12.0107
     269     1 C    6   21.599940    0.036790   20.268730      4.00      12.0107
     270     1 C    6   21.592890    1.408560   20.273110      4.00      12.0107
     271     1 C    6   20.280550    3.611080   20.285560      4.00      12.0107
     272     1 C    6   22.879450   -0.578270   20.295550      4.00      12.0107
     273     2 C    6   19.017220    5.805300   20.267720      4.00      12.0107
     274     2 C    6   17.737240    8.045290   20.212160      4.00      12.0107
     275     2 C    6   16.540810   10.242540   20.183540      4.00      12.0107
     276     2 C    6   15.338050   12.420270   20.164800      4.00      12.0107
     277     2 C    6   14.087350   14.568040   20.172090      4.00      12.0107
     278     2 C    6   12.844920   16.710550   20.176960      4.00      12.0107
     279     2 C    6   11.653780   18.862850   20.156180      4.00      12.0107
     280     2 C    6   10.445380   21.000430   20.167330      4.00      12.0107
     281     2 C    6    9.151070   23.078390   20.194230      4.00      12.0107
     282     2 C    6    7.870140   25.190620   20.251040      4.00      12.0107
     283     1 C    6    6.592000   27.322870   20.311830      4.00      12.0107
     284     1 C    6    5.273930   29.487640   20.279810      4.00      12.0107
     285     1 C    6   34.097380    0.222050   20.554400      4.00      12.0107
     286     1 C    6   34.084140    1.653950   20.546240      4.00      12.0107
     287     1 C    6   32.861390    2.332380   20.581930      4.00      12.0107
     288     1 C    6   32.844430    3.743420   20.559790      4.00      12.0107
     289     1 C    6   34.069660    4.468340   20.501980      4.00      12.0107
     290     1 C    6   31.599000    4.421520   20.589060      4.00      12.0107
     291     1 C    6   35.297750    2.405220   20.485750      4.00      12.0107
     292     1 C    6   35.420780   -0.343280   20.474200      4.00      12.0107
     293     1 C    6   31.571830    5.825090   20.561710      4.00      12.0107
     294     1 C    6   30.325150    6.545000   20.585650      4.00      12.0107
     295     1 C    6   30.282770    7.979970   20.552940      4.00      12.0107
     296     1 C    6   31.482420    8.739260   20.498460      4.00      12.0107
     297     1 C    6   29.055200    8.672970   20.571250      4.00      12.0107
     298     1 C    6   32.814350    6.511250   20.505640      4.00      12.0107
     299     1 C    6   29.056110   10.086600   20.534820      4.00      12.0107
     300     1 C    6   27.823600   10.776070   20.550700      4.00      12.0107
     301     1 C    6   27.861630   12.172890   20.514710      4.00      12.0107
     302     1 C    6   29.084980   12.886310   20.468900      4.00      12.0107
     303     1 C    6   26.564100   12.925290   20.530290      4.00      12.0107
     304     1 C    6   30.287380   10.812540   20.484050      4.00      12.0107
     305     1 C    6   26.577610   14.395750   20.497700      4.00      12.0107
     306     1 C    6   25.416160   15.106900   20.527540      4.00      12.0107
     307     1 C    6   25.441100   16.586930   20.505670      4.00      12.0107
     308     1 C    6   26.622240   17.277820   20.466750      4.00      12.0107
     309     1 C    6   24.158290   17.342900   20.533750      4.00      12.0107
     310     1 C    6   27.885360   15.087060   20.445080      4.00      12.0107
     311     1 C    6   24.148790   18.823490   20.511670      4.00      12.0107
     312     1 C    6   22.849030   19.570460   20.542370      4.00      12.0107
     313     1 C    6   22.864570   21.003250   20.513450      4.00      12.0107
     314     1 C    6   24.084930   21.749170   20.462390      4.00      12.0107
     315     1 C    6   21.654770   21.696250   20.541960      4.00      12.0107
     316     1 C    6   25.331400   19.500920   20.469570      4.00      12.0107
     317     1 C    6   21.698680   23.105280   20.506060      4.00      12.0107
     318     1 C    6   20.419690   23.905480   20.529220      4.00      12.0107
     319     1 C    6   20.424710   25.404250   20.500950      4.00      12.0107
     320     1 C    6   21.668530   26.087670   20.452750      4.00      12.0107
     321     1 C    6   19.216060   26.105750   20.530500      4.00      12.0107
     322     1 C    6   22.936320   23.799870   20.455200      4.00      12.0107
     323     1 C    6   19.272660   27.499810   20.504710      4.00      12.0107
     324     1 C    6   17.989480   28.286290   20.530480      4.00      12.0107
     325     1 C    6   18.018160   29.657780   20.506910      4.00      12.0107
     326     1 C    6   19.320580   30.428370   20.465620      4.00      12.0107
     327     1 C    6   16.723130   30.388780   20.532090      4.00      12.0107
     328     1 C    6   20.538180   28.150670   20.458560      4.00      12.0107
     329     1 C    6   20.430630   29.559360   20.445470      4.00      12.0107
     330     1 C    6   21.744680   27.467290   20.433290      4.00      12.0107
     331     1 C    6   22.788160   25.213040   20.434820      4.00      12.0107
     332     1 C    6   24.146450   23.134610   20.435080      4.00      12.0107
     333     1 C    6   25.222570   20.903320   20.448940      4.00      12.0107
     334     1 C    6   26.479330   18.681280   20.451940      4.00      12.0107
     335     1 C    6   27.791740   16.485330   20.442690      4.00      12.0107
     336     1 C    6   28.920870   14.308470   20.442370      4.00      12.0107
     337     1 C    6   30.293430   12.211690   20.452910      4.00      12.0107
     338     1 C    6   31.498340   10.125910   20.465580      4.00      12.0107
     339     1 C    6   32.648800    7.923660   20.479980      4.00      12.0107
     340     1 C    6   34.042400    5.861450   20.475560      4.00      12.0107
     341     1 C    6   35.295160    3.791920   20.464140      4.00      12.0107
     342     1 C    6   36.472320    1.573810   20.416140      4.00      12.0107
     343     1 C    6   36.619360    0.155910   20.366220      4.00      12.0107
     344     1 C    6   -0.594000    0.066080   20.468340      4.00      12.0107
     345     1 C    6   -1.975760    2.251060   20.469480      4.00      12.0107
     346     1 C    6   -3.279320    4.358280   20.468940      4.00      12.0107
     347     1 C    6   -4.492770    6.521260   20.467620      4.00      12.0107
     348     1 C    6   -5.695150    8.694100   20.467290      4.00      12.0107
     349     1 C    6   -6.970760   10.822230   20.468790      4.00      12.0107
     350     1 C    6   -8.216390   12.965500   20.469120      4.00      12.0107
     351     1 C    6   -9.386080   15.123380   20.467560      4.00      12.0107
     352     1 C    6  -10.657120   17.398330   20.467250      4.00      12.0107
     353     1 C    6  -11.884010   19.527630   20.467660      4.00      12.0107
     354     1 C    6  -12.968330   21.751670   20.467930      4.00      12.0107
     355     1 C    6  -14.291430   24.011050   20.467670      4.00      12.0107
     356     1 C    6  -15.667520   26.095310   20.467610      4.00      12.0107
     357     1 C    6  -17.002880   28.172090   20.468320      4.00      12.0107
     358     1 C    6  -17.150290   29.592550   20.467460      4.00      12.0107
     359     1 C    6   19.317450   31.776050   20.459840      4.00      12.0107
     360     1 C    6   18.014610   32.333630   20.487610      4.00      12.0107
     361     1 C    6   16.727120   31.755670   20.522600      4.00      12.0107
     362     1 C    6   15.453320   32.364930   20.551450      4.00      12.0107
     363     1 C    6    3.992240   31.629360   20.299920      4.00      12.0107
     364     1 C    6    1.627690   31.620860   20.361170      4.00      12.0107
     365     1 C    6    0.447800   32.339730   20.387620      4.00      12.0107
     366     1 C    6    2.808980   32.336930   20.327850      4.00      12.0107
     367     1 C    6   -0.733960   31.632140   20.419810      4.00      12.0107
     368     1 C    6   -3.286010   31.706510   20.500470      4.00      12.0107
     369     1 C    6   -2.007710   32.265540   20.450430      4.00      12.0107
     370     1 C    6   -5.773550   31.709660   20.466240      4.00      12.0107
     371     1 C    6   -7.037050   32.363510   20.461760      4.00      12.0107
     372     1 C    6   -4.460060   32.247130   20.476480      4.00      12.0107
     373     1 C    6   -8.324110   31.792790   20.460020      4.00      12.0107
     374     1 C    6  -10.862390   31.781820   20.458510      4.00      12.0107
     375     1 C    6  -13.271490   31.739960   20.459450      4.00      12.0107
     376     1 C    6  -15.911710   31.702990   20.463360      4.00      12.0107
     377     1 C    6  -18.346990   30.289970   20.469620      4.00      12.0107
     378     1 C    6  -18.312070   31.694020   20.468500      4.00      12.0107
     379     1 C    6  -17.103450   32.408800   20.465450      4.00      12.0107
     380     1 C    6  -14.598660   32.273270   20.460920      4.00      12.0107
     381     1 C    6  -12.073460   32.482820   20.458890      4.00      12.0107
     382     1 C    6   -9.519230   32.312610   20.459150      4.00      12.0107
     383     1 C    6   20.524080   32.661230   20.431560      4.00      12.0107
     384     1 C    6   37.884510   -0.568680   20.643350      4.00      12.0107
     385     1 C    6   24.190510   -0.063240   20.322260      4.00      12.0107
     386     1 C    6   24.176990    1.419450   20.389090      4.00      12.0107
     387     1 C    6   22.879290    2.146780   20.324450      4.00      12.0107
     388     1 C    6   22.861810    3.619820   20.385470      4.00      12.0107
     389     1 C    6   24.123830    4.351200   20.577220      4.00      12.0107
     390     1 C    6   21.577050    4.321800   20.334510      4.00      12.0107
     391     1 C    6   25.436930    2.171590   20.602930      4.00      12.0107
     392     1 C    6   25.474670   -0.611570   20.533640      4.00      12.0107
     393     1 C    6   21.558810    5.786210   20.692550      4.00      12.0107
     394     1 C    6   20.341960    6.536170   20.079130      4.00      12.0107
     395     1 C    6   20.280690    7.963030   20.651660      4.00      12.0107
     396     1 C    6   21.617290    8.714000   20.392480      4.00      12.0107
     397     1 C    6   19.087530    8.736970   20.044640      4.00      12.0107
     398     1 C    6   22.867090    6.536540   20.295980      4.00      12.0107
     399     1 C    6   19.052430   10.159070   20.632120      4.00      12.0107
     400     1 C    6   17.879550   10.940200   20.016900      4.00      12.0107
     401     1 C    6   17.839940   12.353170   20.613660      4.00      12.0107
     402     1 C    6   19.176780   13.096150   20.385870      4.00      12.0107
     403     1 C    6   16.666120   13.127570   19.999630      4.00      12.0107
     404     1 C    6   20.391760   10.901810   20.398630      4.00      12.0107
     405     1 C    6   16.611970   14.528280   20.609570      4.00      12.0107
     406     1 C    6   15.420450   15.287540   20.005350      4.00      12.0107
     407     1 C    6   15.368930   16.683090   20.617720      4.00      12.0107
     408     1 C    6   16.703700   17.441330   20.390030      4.00      12.0107
     409     1 C    6   14.178900   17.433400   20.010270      4.00      12.0107
     410     1 C    6   17.947700   15.278340   20.383040      4.00      12.0107
     411     1 C    6   14.128570   18.833190   20.616410      4.00      12.0107
     412     1 C    6   12.966170   19.588420   19.982990      4.00      12.0107
     413     1 C    6   12.898740   20.992740   20.582770      4.00      12.0107
     414     1 C    6   14.215540   21.751580   20.374210      4.00      12.0107
     415     1 C    6   11.726000   21.748090   19.963110      4.00      12.0107
     416     1 C    6   15.452950   19.591290   20.399740      4.00      12.0107
     417     1 C    6   11.644800   23.132270   20.588820      4.00      12.0107
     418     1 C    6   10.434960   23.870450   20.007670      4.00      12.0107
     419     1 C    6   10.369550   25.254150   20.643150      4.00      12.0107
     420     1 C    6   11.687780   26.028190   20.389400      4.00      12.0107
     421     1 C    6    9.147870   26.000790   20.093230      4.00      12.0107
     422     1 C    6   12.960890   23.900120   20.367920      4.00      12.0107
     423     1 C    6    9.103070   27.384930   20.758550      4.00      12.0107
     424     1 C    6    7.833110   28.092980   20.390590      4.00      12.0107
     425     1 C    6    7.848570   29.547670   20.430650      4.00      12.0107
     426     1 C    6    9.098070   30.299300   20.691440      4.00      12.0107
     427     1 C    6    6.570760   30.267170   20.263970      4.00      12.0107
     428     1 C    6   10.399880   28.154420   20.366000      4.00      12.0107
     429     1 C    6   26.744390   -0.029990   20.756790      4.00      12.0107
     430     1 C    6   26.722090    1.456820   20.721440      4.00      12.0107
     431     1 C    6   29.325960    0.118410   20.690650      4.00      12.0107
     432     1 C    6   29.245850    1.544810   20.688360      4.00      12.0107
     433     1 C    6   25.415040    3.635130   20.643810      4.00      12.0107
     434     1 C    6   28.003440    2.248440   20.707490      4.00      12.0107
     435     1 C    6   27.935970    3.670440   20.691890      4.00      12.0107
     436     1 C    6   29.144210    4.400550   20.660920      4.00      12.0107
     437     1 C    6   26.706560    4.385480   20.691800      4.00      12.0107
     438     1 C    6   30.433030    2.283600   20.654190      4.00      12.0107
     439     1 C    6   28.057740   -0.526370   20.714540      4.00      12.0107
     440     1 C    6   30.529490   -0.567780   20.667440      4.00      12.0107
     441     1 C    6   24.135510    5.797880   20.641700      4.00      12.0107
     442     1 C    6   26.683870    5.796810   20.695120      4.00      12.0107
     443     1 C    6   22.832030    7.937520   20.943780      4.00      12.0107
     444     1 C    6   25.384350    6.543370   20.710420      4.00      12.0107
     445     1 C    6   25.361250    8.021890   20.703410      4.00      12.0107
     446     1 C    6   26.601880    8.685930   20.642550      4.00      12.0107
     447     3 C    6   24.127520    8.714480   20.757190      4.00      12.0107
     448     1 C    6   27.878730    6.536150   20.657860      4.00      12.0107
     449     1 C    6   21.571510   10.123170   20.999940      4.00      12.0107
     450     1 C    6   24.100190   10.121590   20.728760      4.00      12.0107
     451     1 C    6   20.346790   12.317530   20.997960      4.00      12.0107
     452     3 C    6   22.884820   10.867870   20.796140      4.00      12.0107
     453     1 C    6   22.865150   12.293220   20.746250      4.00      12.0107
     454     1 C    6   24.084220   12.972740   20.641850      4.00      12.0107
     455     3 C    6   21.665090   13.058830   20.803490      4.00      12.0107
     456     1 C    6   25.327250   10.800910   20.638430      4.00      12.0107
     457     1 C    6   19.127570   14.506040   20.990320      4.00      12.0107
     458     1 C    6   21.658360   14.488610   20.747820      4.00      12.0107
     459     1 C    6   17.891130   16.680970   20.994810      4.00      12.0107
     460     3 C    6   20.448420   15.250610   20.800950      4.00      12.0107
     461     1 C    6   20.425300   16.680630   20.751640      4.00      12.0107
     462     1 C    6   21.650170   17.375750   20.651540      4.00      12.0107
     463     3 C    6   19.207800   17.427290   20.811400      4.00      12.0107
     464     1 C    6   22.886660   15.170530   20.644690      4.00      12.0107
     465     1 C    6   16.636020   18.835360   21.013310      4.00      12.0107
     466     1 C    6   19.203410   18.845000   20.773250      4.00      12.0107
     467     1 C    6   15.376440   20.991780   21.011170      4.00      12.0107
     468     3 C    6   17.919670   19.620350   20.854630      4.00      12.0107
     469     1 C    6   17.905360   20.976660   20.791410      4.00      12.0107
     470     1 C    6   19.163890   21.704920   20.663730      4.00      12.0107
     471     3 C    6   16.661340   21.764410   20.859320      4.00      12.0107
     472     1 C    6   20.427050   19.541110   20.663840      4.00      12.0107
     473     1 C    6   14.139830   23.147840   20.988890      4.00      12.0107
     474     1 C    6   16.682390   23.124300   20.782750      4.00      12.0107
     475     1 C    6   12.891170   25.288950   20.988430      4.00      12.0107
     476     3 C    6   15.434780   23.915790   20.838660      4.00      12.0107
     477     1 C    6   15.457080   25.273900   20.763630      4.00      12.0107
     478     1 C    6   16.747000   26.013300   20.648680      4.00      12.0107
     479     3 C    6   14.193980   26.049680   20.818490      4.00      12.0107
     480     1 C    6   17.963280   23.855730   20.658950      4.00      12.0107
     481     1 C    6   11.626680   27.435560   20.975690      4.00      12.0107
     482     1 C    6   14.210460   27.402730   20.735080      4.00      12.0107
     483     1 C    6   10.385290   29.602780   20.745100      4.00      12.0107
[...]
 flops   253 x    64 x   283        5810768634880     100.0%      0.0%      0.0%
 flops   253 x    32 x   283        6249573130240     100.0%      0.0%      0.0%
 flops    13 x     8 x    13        6693398295168       0.0%    100.0%      0.0%
 flops   128 x    40 x   283        6806779392000       0.0%    100.0%      0.0%
 flops   256 x    96 x   283        6820776345600     100.0%      0.0%      0.0%
 flops   256 x    64 x    64        7007440470016       0.0%    100.0%      0.0%
 flops   256 x    32 x    64        8008503394304       0.0%    100.0%      0.0%
 flops   104 x    64 x   283        8725660303360       0.0%    100.0%      0.0%
 flops   849 x    64 x    96        9337306890240     100.0%      0.0%      0.0%
 flops   855 x    64 x    96        9403294924800     100.0%      0.0%      0.0%
 flops   857 x    64 x    96        9425290936320     100.0%      0.0%      0.0%
 flops   858 x    64 x    96        9436288942080     100.0%      0.0%      0.0%
 flops   859 x    64 x    96        9447286947840     100.0%      0.0%      0.0%
 flops   864 x    64 x    96        9502276976640     100.0%      0.0%      0.0%
 flops   104 x    32 x   283        9972183203840       0.0%    100.0%      0.0%
 flops   849 x    32 x    96       10671207874560     100.0%      0.0%      0.0%
 flops   855 x    32 x    96       10746622771200     100.0%      0.0%      0.0%
 flops   857 x    32 x    96       10771761070080     100.0%      0.0%      0.0%
 flops   858 x    32 x    96       10784330219520     100.0%      0.0%      0.0%
 flops   859 x    32 x    96       10796899368960     100.0%      0.0%      0.0%
 flops   864 x    32 x    96       10859745116160     100.0%      0.0%      0.0%
 flops    13 x    13 x    32       13910163621120       0.0%    100.0%      0.0%
 flops    13 x    13 x    64       14837507862528       0.0%    100.0%      0.0%
 flops   256 x    64 x   286       16637599154176     100.0%      0.0%      0.0%
 flops   256 x    32 x   286       17893999771648     100.0%      0.0%      0.0%
 flops   862 x    64 x    96       18960561930240     100.0%      0.0%      0.0%
 flops   849 x    64 x    32       19668689596416       0.0%    100.0%      0.0%
 flops   256 x    64 x    96       19708426321920       0.0%    100.0%      0.0%
 flops   855 x    64 x    32       19807690936320       0.0%    100.0%      0.0%
 flops   857 x    64 x    32       19854024716288       0.0%    100.0%      0.0%
 flops   858 x    64 x    32       19877191606272       0.0%    100.0%      0.0%
 flops   859 x    64 x    32       19900358496256       0.0%    100.0%      0.0%
 flops   864 x    64 x    32       20016192946176       0.0%    100.0%      0.0%
 flops   849 x    64 x    64       20562717622272     100.0%      0.0%      0.0%
 flops   855 x    64 x    64       20708037181440     100.0%      0.0%      0.0%
 flops   857 x    64 x    64       20756477034496     100.0%      0.0%      0.0%
 flops   858 x    64 x    64       20780696961024     100.0%      0.0%      0.0%
 flops   859 x    64 x    64       20804916887552     100.0%      0.0%      0.0%
 flops   864 x    64 x    64       20926016520192     100.0%      0.0%      0.0%
 flops   256 x    64 x   288       20942432501760     100.0%      0.0%      0.0%
 flops   862 x    32 x    96       21669213634560     100.0%      0.0%      0.0%
 flops   849 x    32 x    32       22478502395904       0.0%    100.0%      0.0%
 flops   256 x    32 x   288       22523915796480     100.0%      0.0%      0.0%
 flops   256 x    32 x    96       22523915796480       0.0%    100.0%      0.0%
 flops   855 x    32 x    32       22637361070080       0.0%    100.0%      0.0%
 flops   857 x    32 x    32       22690313961472       0.0%    100.0%      0.0%
 flops   858 x    32 x    32       22716790407168       0.0%    100.0%      0.0%
 flops   859 x    32 x    32       22743266852864       0.0%    100.0%      0.0%
 flops   864 x    32 x    32       22875649081344       0.0%    100.0%      0.0%
 flops   849 x    32 x    64       23500248711168       0.0%    100.0%      0.0%
 flops   855 x    32 x    64       23666328207360       0.0%    100.0%      0.0%
 flops   857 x    32 x    64       23721688039424       0.0%    100.0%      0.0%
 flops   858 x    32 x    64       23749367955456       0.0%    100.0%      0.0%
 flops   859 x    32 x    64       23777047871488       0.0%    100.0%      0.0%
 flops   864 x    32 x    64       23915447451648       0.0%    100.0%      0.0%
 flops   128 x    64 x    64       28475742224384       0.0%    100.0%      0.0%
 flops     5 x    32 x    13       29853783223680       0.0%    100.0%      0.0%
 flops    13 x    32 x     5       29853783223680       0.0%    100.0%      0.0%
 flops   128 x    64 x   286       31307808243712     100.0%      0.0%      0.0%
 flops   128 x    64 x    32       32504285757440       0.0%    100.0%      0.0%
 flops   128 x    32 x    64       32543705399296       0.0%    100.0%      0.0%
 flops   128 x    32 x   286       35679691407360       0.0%    100.0%      0.0%
 flops   128 x    32 x    32       37147755151360       0.0%    100.0%      0.0%
 flops   128 x    64 x   288       39408429957120     100.0%      0.0%      0.0%
 flops   862 x    64 x    32       39939718332416       0.0%    100.0%      0.0%
 flops   256 x    64 x   283       41157697208320     100.0%      0.0%      0.0%
 flops   862 x    64 x    64       41755153334272     100.0%      0.0%      0.0%
 flops   256 x    32 x   283       44265751183360     100.0%      0.0%      0.0%
 flops   128 x    32 x   288       44911499673600       0.0%    100.0%      0.0%
 flops   862 x    32 x    32       45645392379904       0.0%    100.0%      0.0%
 flops   862 x    32 x    64       47720175239168       0.0%    100.0%      0.0%
 flops   128 x    64 x   283       77448511651840     100.0%      0.0%      0.0%
 flops   128 x    32 x   283       88263572275200       0.0%    100.0%      0.0%
 flops    13 x    32 x    13      845927603262976       0.0%    100.0%      0.0%
 flops inhomo. stacks             158272905996000     100.0%      0.0%      0.0%
 flops total                         2.848591E+15      31.2%     68.8%      0.0%
 flops max/rank                     24.938966E+12      42.5%     57.5%      0.0%
 matmuls inhomo. stacks                  41292480     100.0%      0.0%      0.0%
 matmuls total                       100298411590       0.2%     99.8%      0.0%
 number of processed stacks            1488207510      10.9%     89.1%      0.0%
 average stack size                                     1.0      75.5       0.0
 marketing flops                     5.469749E+15
 -------------------------------------------------------------------------------
 # multiplications                         229074
 max memory usage/rank               2.971320E+09
 # max total images/rank                        3
 # max 3D layers                                1
 # MPI messages exchanged              4046363136
 MPI messages size (bytes):
  total size                       370.633398E+12
  min size                           0.000000E+00
  max size                         663.552000E+03
  average size                      91.596672E+03
 MPI breakdown and total messages size (bytes):
             size <=      128            28098456                        0
       128 < size <=     8192           763468624            6254334967808
      8192 < size <=    32768          1369302677           29320590591616
     32768 < size <=   131072           922466819           66658568640696
    131072 < size <=  4194304           963026560          292322119052576
   4194304 < size <= 16777216                   0                        0
  16777216 < size                               0                        0
 -------------------------------------------------------------------------------

 *** WARNING in dbcsr/mm/dbcsr_mm.F:268 :: Using a non-square number of ***
 *** MPI ranks might lead to poor performance.                          ***
 *** Used ranks: 192                                                    ***
 *** Suggested: 196 400                                                 ***

 -------------------------------------------------------------------------------
 
 MEMORY| Estimated peak process memory [MiB]                                3071

 -------------------------------------------------------------------------------
 ----                             MULTIGRID INFO                            ----
 -------------------------------------------------------------------------------
 count for grid        1:        5243307          cutoff [a.u.]          250.00
 count for grid        2:        5880197          cutoff [a.u.]           83.33
 count for grid        3:        5779712          cutoff [a.u.]           27.78
 count for grid        4:        1989780          cutoff [a.u.]            9.26
 count for grid        5:           2880          cutoff [a.u.]            3.09
 total gridlevel count  :       18895876

 -------------------------------------------------------------------------------
 -                                                                             -
 -                         MESSAGE PASSING PERFORMANCE                         -
 -                                                                             -
 -------------------------------------------------------------------------------

 ROUTINE             CALLS      AVE VOLUME [Bytes]
 MP_Group            19752
 MP_Bcast           822043                   1350.
 MP_Allreduce      3399036                   2681.
 MP_Sync             14831
 MP_Alltoall       1054335                9042792.
 MP_ISendRecv      3966306                 191616.
 MP_Wait          52427322
 MP_comm_split       14826
 MP_ISend         44312138                  67389.
 MP_IRecv         44312138                  66933.
 MP_Recv              6329                1381962.
 MP_Memory        17183148
 MP_Write_All           74                3412800.
 -------------------------------------------------------------------------------


 -------------------------------------------------------------------------------
 -                                                                             -
 -                           R E F E R E N C E S                               -
 -                                                                             -
 -------------------------------------------------------------------------------
 
 CP2K version 6.1, the CP2K developers group (2018).
 CP2K is freely available from https://www.cp2k.org/ .

 Schuett, Ole; Messmer, Peter; Hutter, Juerg; VandeVondele, Joost. 
 Electronic Structure Calculations on Graphics Processing Units, John Wiley & Sons, Ltd, 173-190 (2016). 
 GPU-Accelerated Sparse Matrix-Matrix Multiplication for Linear Scaling Density Functional Theory.
 http://dx.doi.org/10.1002/9781118670712.ch8


 Borstnik, U; VandeVondele, J; Weber, V; Hutter, J. 
 PARALLEL COMPUTING, 40 (5-6), 47-58 (2014). 
 Sparse matrix multiplication: The distributed block-compressed sparse
 row library.
 http://dx.doi.org/10.1016/j.parco.2014.03.012


 Hutter, J; Iannuzzi, M; Schiffmann, F; VandeVondele, J. 
 WILEY INTERDISCIPLINARY REVIEWS-COMPUTATIONAL MOLECULAR SCIENCE, 4 (1), 15-25 (2014). 
 CP2K: atomistic simulations of condensed matter systems.
 http://dx.doi.org/10.1002/wcms.1159


 Sabatini, R; Gorni, T; de Gironcoli, S. 
 Phys. Rev. B, 87 (4), 041108(R) (2013). 
 Nonlocal van der Waals density functional made simple and efficient.
 http://dx.doi.org/10.1103/PhysRevB.87.041108


 Roman-Perez, G; Soler, JM. 
 Phys. Rev. Lett., 103 (9), 096102 (2009). 
 Efficient Implementation of a van der Waals Density Functional:
 Application to Double-Wall Carbon Nanotubes.
 http://dx.doi.org/10.1103/PhysRevLett.103.096102


 VandeVondele, J; Hutter, J. 
 JOURNAL OF CHEMICAL PHYSICS, 127 (11), 114105 (2007). 
 Gaussian basis sets for accurate calculations on molecular systems in
 gas and condensed phases.
 http://dx.doi.org/10.1063/1.2770708


 Krack, M. 
 THEORETICAL CHEMISTRY ACCOUNTS, 114 (1-3), 145-152 (2005). 
 Pseudopotentials for H to Kr optimized for gradient-corrected
 exchange-correlation functionals.
 http://dx.doi.org/10.1007/s00214-005-0655-y


 VandeVondele, J; Krack, M; Mohamed, F; Parrinello, M; Chassaing, T;
 Hutter, J. COMPUTER PHYSICS COMMUNICATIONS, 167 (2), 103-128 (2005). 
 QUICKSTEP: Fast and accurate density functional calculations using a
 mixed Gaussian and plane waves approach.
 http://dx.doi.org/10.1016/j.cpc.2004.12.014


 Frigo, M; Johnson, SG. 
 PROCEEDINGS OF THE IEEE, 93 (2), 216-231 (2005). 
 The design and implementation of FFTW3.
 http://dx.doi.org/10.1109/JPROC.2004.840301


 Kolafa, J. 
 JOURNAL OF COMPUTATIONAL CHEMISTRY, 25 (3), 335-342 (2004). 
 Time-reversible always stable predictor-corrector method for molecular dynamics of polarizable molecules.
 http://dx.doi.org/10.1002/jcc.10385


 VandeVondele, J; Hutter, J. 
 JOURNAL OF CHEMICAL PHYSICS, 118 (10), 4365-4369 (2003). 
 An efficient orbital transformation method for electronic structure
 calculations.
 http://dx.doi.org/10.1063/1.1543154


 Hartwigsen, C; Goedecker, S; Hutter, J. 
 PHYSICAL REVIEW B, 58 (7), 3641-3662 (1998). 
 Relativistic separable dual-space Gaussian pseudopotentials from H to Rn.
 http://dx.doi.org/10.1103/PhysRevB.58.3641


 Zhang, YK; Yang, WT. 
 PHYSICAL REVIEW LETTERS, 80 (4), 890-890 (1998). 
 Comment on Generalized gradient approximation made simple.
 http://dx.doi.org/10.1103/PhysRevLett.80.890


 Lippert, G; Hutter, J; Parrinello, M. 
 MOLECULAR PHYSICS, 92 (3), 477-487 (1997). 
 A hybrid Gaussian and plane wave density functional scheme.
 http://dx.doi.org/10.1080/002689797170220


 Perdew, JP; Burke, K; Ernzerhof, M. 
 PHYSICAL REVIEW LETTERS, 77 (18), 3865-3868 (1996). 
 Generalized gradient approximation made simple.
 http://dx.doi.org/10.1103/PhysRevLett.77.3865


 Goedecker, S; Teter, M; Hutter, J. 
 PHYSICAL REVIEW B, 54 (3), 1703-1710 (1996). 
 Separable dual-space Gaussian pseudopotentials.
 http://dx.doi.org/10.1103/PhysRevB.54.1703


 -------------------------------------------------------------------------------
 -                                                                             -
 -                                T I M I N G                                  -
 -                                                                             -
 -------------------------------------------------------------------------------
 SUBROUTINE                       CALLS  ASD         SELF TIME        TOTAL TIME
                                MAXIMUM       AVERAGE  MAXIMUM  AVERAGE  MAXIMUM
 CP2K                                 1  1.0     0.12     0.28 60165.51 60275.12
 cp_geo_opt                           1  2.0     0.05     0.08 60161.59 60271.19
 geoopt_bfgs                          1  3.0     0.09     0.16 60161.54 60271.15
 cp_eval_at                          37  4.0     0.01     0.01 60151.10 60260.66
 qs_forces                           36  5.0     0.01     0.03 59143.61 59251.36
 qs_energies                         37  6.0     0.04     0.09 59003.09 59110.55
 scf_env_do_scf                      37  7.0     0.01     0.04 54095.73 54193.99
 scf_env_do_scf_inner_loop         1117  8.0     0.08     0.31 54095.72 54193.98
 rebuild_ks_matrix                 1153  9.9     0.01     0.01 36027.30 36092.64
 qs_ks_build_kohn_sham_matrix      1153 10.9     0.60     2.34 36027.29 36092.63
 qs_ks_update_qs_env               1117  9.0     0.01     0.01 34886.78 34949.97
 qs_vxc_create                     1153 11.9     0.23     0.41 31777.91 31839.84
 pw_transfer                     135969 13.5    18.81    21.81 28389.25 29251.38
 fft_wrap_pw1pw2                 123286 14.5     1.69     1.98 28195.18 29100.40
 fft_wrap_pw1pw2_250              95598 15.7  1925.75  2181.20 27458.93 28338.11
 calculate_dispersion_nonloc       1153 12.9  1243.57  1461.25 25871.28 25937.23
 fft3d_ps                        123286 16.5 10077.49 10516.60 22661.09 24112.59
 mp_alltoall_z22v                123286 18.5  9907.92 13233.02  9907.92 13233.02
 qs_rho_update_rho                 1154  9.0     0.02     0.02 10053.30 10073.05
 calculate_rho_elec                4616 10.0  1616.66  4922.19 10053.28 10073.03
 density_rs2pw                     4616 11.0     0.35     0.44  7902.86  8728.73
 x_to_yz                          56355 17.7  1669.33  1916.95  6897.89  7518.42
 yz_to_x                          46165 17.6   902.65  1038.30  5565.20  7515.89
 cp_fm_syevd                      14826 14.3     0.12     0.18  7335.79  7356.31
 cp_fm_redistribute_end           14826 15.3  3513.13  7243.02  3528.97  7253.96
 qs_scf_new_mos                    1117  9.0     0.54     2.08  7231.14  7244.70
 eigensolver                       2234 10.0     0.19     0.30  7141.65  7154.78
 cp_fm_syevd_base                 14826 13.9  3701.78  7132.93  3701.78  7132.93
 rs_pw_transfer                   34794 13.0     0.43     0.52  5693.27  6469.72
 xc_vxc_pw_create                  1153 12.9   133.33   172.13  5906.40  5955.60
 vdW_energy                        1153 13.9  4186.18  4636.25  4186.18  4636.25
 scf_post_calculation_gpw            37  7.0     0.00     0.00  4518.66  4527.12
 write_available_results             37  8.0     0.00     0.01  4518.65  4527.12
 rs_pw_transfer_RS2PW_250          4690 13.0   356.58   482.49  3199.05  4519.30
 mp_waitany                      757512 14.9  3602.85  4472.51  3602.85  4472.51
 write_mo_dependent_results          37  9.0     0.68     0.73  4399.21  4407.46
 calculate_projected_dos             74 10.0    24.69    28.93  4394.14  4402.37
 ot_eigensolver                      74 11.0     0.52     0.88  4118.59  4126.42
 sum_up_and_integrate              1153 11.9    42.31    51.66  3722.88  3775.98
 integrate_v_rspace                2306 12.9   571.37  1768.34  3680.57  3748.77
 xc_rho_set_and_dset_create        1153 13.9    60.28    67.58  2706.22  2774.41
 dbcsr_multiply_generic          229074 13.8    16.76    18.06  2505.22  2569.97
 rs_pw_transfer_RS2PW_90           4616 13.0   270.53   327.15   928.77  2472.24
 pw_scatter_p                     63273 16.8  2100.53  2391.41  2100.53  2391.41
 gspace_mixing                     1080  9.0    24.23    26.47  2227.83  2231.90
 potential_pw2rs                   2306 13.9     2.34     2.59  1899.02  1966.40
 qs_ot_get_p                      17441 12.0     0.15     0.32  1890.47  1941.78
 multiply_cannon                 229074 14.8    74.27    79.78  1726.43  1932.39
 mp_waitall_1                   ******* 16.8  1219.01  1576.45  1219.01  1576.45
 pw_gather_p                      60013 16.2  1471.35  1571.00  1471.35  1571.00
 mp_alltoall_d11v                214460 16.3  1251.01  1523.56  1251.01  1523.56
 rs_distribute_matrix              6994 12.0     4.10    16.14  1237.41  1505.14
 qs_ot_p2m_diag                   12408 13.0     5.15     8.68  1487.46  1496.15
 broyden_mixing                    1080 10.0  1342.75  1420.52  1437.36  1445.43
 cp_dbcsr_syevd                   12408 14.0     0.76     1.43  1368.86  1371.59
 mp_sum_d                        513617 15.6   794.67  1330.56   794.67  1330.56
 cp_fm_triangular_multiply         7852 11.2  1312.90  1327.88  1312.90  1327.88
 -------------------------------------------------------------------------------

 The number of warnings for this run is : 1
 
 -------------------------------------------------------------------------------
  **** **** ******  **  PROGRAM ENDED AT                 2021-10-06 15:25:18.929
 ***** ** ***  *** **   PROGRAM RAN ON               cresco6x019.portici.enea.it
 **    ****   ******    PROGRAM RAN BY                                    ftotti
 ***** **    ** ** **   PROGRAM PROCESS ID                                858170
  **** **  *******  **  PROGRAM STOPPED IN /gporq2/scratch_0/usr/ftotti/Andrea/I
                                           SOLE
