# Projected DOS for atomic kind C2 at iteration step i = 36, E(Fermi) =    -0.147424 a.u. -0.147424 a.u.
#     MO Eigenva.u. -0.147424 a.u. [a.u.]      Occupation                 s                py                pz                px               d-2               d-1                d0               d+1               d+2
       1         -0.850214        1.000000        0.00278034        0.00004853        0.00000150        0.00012316        0.00000051        0.00000121        0.00047339        0.00000262        0.00000023
       2         -0.847834        1.000000        0.00133413        0.00008008        0.00000132        0.00026552        0.00000439        0.00000069        0.00022759        0.00000232        0.00000710
       3         -0.847830        1.000000        0.00079602        0.00012605        0.00000083        0.00011851        0.00000290        0.00000078        0.00013531        0.00000107        0.00001150
       4         -0.847175        1.000000        0.00662348        0.00026181        0.00000519        0.00075413        0.00001413        0.00000372        0.00111670        0.00000888        0.00000486
       5         -0.847060        1.000000        0.00247212        0.00035136        0.00000077        0.00023423        0.00000473        0.00000213        0.00039721        0.00000235        0.00000844
       6         -0.845697        1.000000        0.01508240        0.00038812        0.00000515        0.00039494        0.00000663        0.00000696        0.00241476        0.00001345        0.00001852
       7         -0.844728        1.000000        0.02569034        0.00023076        0.00000883        0.00036836        0.00001204        0.00000646        0.00405745        0.00001803        0.00001838
       8         -0.841062        1.000000        0.00450552        0.00028453        0.00000161        0.00026232        0.00001613        0.00000226        0.00068542        0.00000498        0.00002911
       9         -0.841022        1.000000        0.00200624        0.00045871        0.00000103        0.00028202        0.00001584        0.00000193        0.00030231        0.00000272        0.00003553
      10         -0.840703        1.000000        0.00800181        0.00066852        0.00000512        0.00081981        0.00003637        0.00000409        0.00124263        0.00001028        0.00006217
      11         -0.840396        1.000000        0.01613066        0.00076143        0.00000880        0.00145939        0.00005819        0.00000972        0.00250969        0.00002110        0.00005907
      12         -0.840056        1.000000        0.01027401        0.00023216        0.00000151        0.00014090        0.00000341        0.00000181        0.00152348        0.00000513        0.00000306
      13         -0.839360        1.000000        0.01524957        0.00038819        0.00000116        0.00041094        0.00000234        0.00000585        0.00221746        0.00000764        0.00000135
      14         -0.837740        1.000000        0.00745665        0.00090903        0.00000501        0.00107908        0.00004269        0.00000530        0.00111689        0.00001147        0.00012368
      15         -0.837698        1.000000        0.00528618        0.00100897        0.00000429        0.00089137        0.00004992        0.00000390        0.00078914        0.00000890        0.00014951
      16         -0.836886        1.000000        0.02970689        0.00026328        0.00000825        0.00074029        0.00014759        0.00001085        0.00439374        0.00002757        0.00005119
      17         -0.836081        1.000000        0.01225278        0.00085383        0.00000325        0.00236559        0.00000508        0.00000024        0.00165764        0.00000043        0.00000249
      18         -0.835561        1.000000        0.02984636        0.00205936        0.00000444        0.00071568        0.00003572        0.00001435        0.00419972        0.00002414        0.00006300
      19         -0.835553        1.000000        0.02802069        0.00256449        0.00000505        0.00088154        0.00002835        0.00000863        0.00394210        0.00001969        0.00007223
      20         -0.828742        1.000000        0.00055851        0.00024759        0.00000055        0.00017590        0.00002891        0.00000076        0.00007354        0.00000140        0.00005521
      21         -0.828713        1.000000        0.00082439        0.00021691        0.00000050        0.00016917        0.00002564        0.00000103        0.00010858        0.00000155        0.00005405
      22         -0.828012        1.000000        0.00838798        0.00030733        0.00000091        0.00046059        0.00002522        0.00000297        0.00107546        0.00000601        0.00002571
      23         -0.827968        1.000000        0.00122477        0.00090490        0.00000348        0.00152176        0.00004471        0.00000227        0.00016568        0.00000433        0.00010760
      24         -0.827917        1.000000        0.00400721        0.00110740        0.00000554        0.00180499        0.00008744        0.00000421        0.00054979        0.00001069        0.00014789
      25         -0.827639        1.000000        0.00873392        0.00136180        0.00000238        0.00081575        0.00011649        0.00000873        0.00114851        0.00001152        0.00016780
      26         -0.826772        1.000000        0.01963716        0.00162677        0.00000098        0.00124672        0.00003291        0.00000768        0.00246149        0.00000998        0.00003469
      27         -0.826628        1.000000        0.02452903        0.00135917        0.00000496        0.00156430        0.00004207        0.00000632        0.00308174        0.00001267        0.00004806
      28         -0.826507        1.000000        0.02064564        0.00275472        0.00000921        0.00267839        0.00021291        0.00001362        0.00270119        0.00003142        0.00032248
      29         -0.826349        1.000000        0.02723807        0.00283993        0.00000746        0.00202054        0.00028554        0.00001283        0.00352130        0.00003283        0.00025663
      30         -0.825840        1.000000        0.00798441        0.00215336        0.00000693        0.00253138        0.00014040        0.00000335        0.00096487        0.00000574        0.00018515
      31         -0.825766        1.000000        0.00577651        0.00201655        0.00001102        0.00409100        0.00018510        0.00000527        0.00071708        0.00000971        0.00020154
      32         -0.821118        1.000000        0.01487842        0.00300954        0.00000546        0.00189058        0.00016835        0.00001274        0.00177530        0.00002450        0.00043509
      33         -0.820972        1.000000        0.01151994        0.00339013        0.00000532        0.00184555        0.00018750        0.00001092        0.00136267        0.00001973        0.00050336
      34         -0.820804        1.000000        0.00116721        0.00209035        0.00001689        0.00617395        0.00006094        0.00000155        0.00011514        0.00000427        0.00002097
      35         -0.820174        1.000000        0.02596834        0.00036495        0.00000373        0.00092459        0.00059106        0.00001159        0.00317589        0.00003011        0.00020162
      36         -0.819760        1.000000        0.02135374        0.00315875        0.00000291        0.00138614        0.00014379        0.00001056        0.00241027        0.00001659        0.00004861
      37         -0.819534        1.000000        0.01748246        0.00408558        0.00000137        0.00170390        0.00012290        0.00000864        0.00196616        0.00001232        0.00004305
      38         -0.811807        1.000000        0.00290957        0.00101501        0.00000093        0.00047821        0.00010462        0.00000318        0.00029533        0.00000510        0.00013892
      39         -0.811772        1.000000        0.00249911        0.00096809        0.00000067        0.00039375        0.00009955        0.00000285        0.00025158        0.00000452        0.00013519
      40         -0.811305        1.000000        0.00049539        0.00158932        0.00001601        0.00460986        0.00016498        0.00000063        0.00004182        0.00000174        0.00027474
      41         -0.811106        1.000000        0.00627767        0.00097732        0.00000189        0.00105785        0.00003954        0.00000145        0.00063854        0.00000233        0.00007817
      42         -0.811074        1.000000        0.00216935        0.00144724        0.00000833        0.00276467        0.00029957        0.00000414        0.00024246        0.00000982        0.00047284
      43         -0.810752        1.000000        0.01731497        0.00099484        0.00000136        0.00069504        0.00023211        0.00001138        0.00182543        0.00002175        0.00013830
      44         -0.808643        1.000000        0.00384145        0.00168166        0.00000205        0.00088280        0.00018812        0.00000517        0.00038011        0.00000879        0.00035959
      45         -0.808571        1.000000        0.00543539        0.00166514        0.00000145        0.00088930        0.00018225        0.00000672        0.00053075        0.00001052        0.00035942
      46         -0.807929        1.000000        0.00079971        0.00234784        0.00001971        0.00654796        0.00038147        0.00000354        0.00008798        0.00000982        0.00039082
      47         -0.807857        1.000000        0.00404694        0.00187056        0.00001368        0.00409060        0.00031161        0.00000262        0.00037440        0.00000579        0.00048166
      48         -0.807719        1.000000        0.00469436        0.00188424        0.00000769        0.00297466        0.00029353        0.00000467        0.00045955        0.00000938        0.00056742
      49         -0.807675        1.000000        0.00207710        0.00295265        0.00002830        0.00878408        0.00048993        0.00000491        0.00022748        0.00001373        0.00034283
      50         -0.807333        1.000000        0.02024989        0.00092992        0.00000088        0.00040817        0.00044406        0.00000663        0.00202882        0.00001604        0.00015949
      51         -0.807275        1.000000        0.02696308        0.00555719        0.00000454        0.00288256        0.00030867        0.00001870        0.00264738        0.00003986        0.00064665
      52         -0.807175        1.000000        0.02753375        0.00620216        0.00000329        0.00270963        0.00025898        0.00001901        0.00267597        0.00003906        0.00058453
      53         -0.806689        1.000000        0.03300644        0.00093966        0.00000385        0.00034348        0.00066219        0.00001507        0.00329042        0.00003234        0.00025279
      54         -0.806025        1.000000        0.01538908        0.00490163        0.00000816        0.00241436        0.00058023        0.00001175        0.00140858        0.00001776        0.00043188
      55         -0.805808        1.000000        0.01611914        0.00581664        0.00000509        0.00264729        0.00052846        0.00001385        0.00146738        0.00001898        0.00032863
      56         -0.798131        1.000000        0.01633386        0.00507780        0.00000468        0.00260337        0.00077011        0.00001452        0.00137466        0.00002878        0.00065214
      57         -0.798026        1.000000        0.00857435        0.00323902        0.00001923        0.00694924        0.00075741        0.00001015        0.00076854        0.00002260        0.00040567
      58         -0.797875        1.000000        0.01922639        0.00694436        0.00000219        0.00271769        0.00042285        0.00001978        0.00157302        0.00003380        0.00075266
      59         -0.797469        1.000000        0.01745021        0.00175687        0.00001284        0.00178654        0.00039935        0.00000760        0.00146514        0.00001439        0.00019085
      60         -0.797370        1.000000        0.00765440        0.00078402        0.00000833        0.00176063        0.00036026        0.00000123        0.00064801        0.00000275        0.00034866
      61         -0.797175        1.000000        0.00605048        0.00225376        0.00000525        0.00211640        0.00030349        0.00000224        0.00047230        0.00000332        0.00035988
      62         -0.789831        1.000000        0.00096963        0.00049430        0.00000035        0.00024810        0.00009271        0.00000164        0.00006757        0.00000257        0.00014564
      63         -0.789771        1.000000        0.00073893        0.00051605        0.00000043        0.00024173        0.00008164        0.00000149        0.00005187        0.00000212        0.00014705
      64         -0.789084        1.000000        0.00631457        0.00097917        0.00000201        0.00046450        0.00011710        0.00000337        0.00046744        0.00000835        0.00006601
      65         -0.788956        1.000000        0.00323249        0.00141227        0.00001125        0.00382187        0.00051865        0.00000383        0.00025017        0.00000667        0.00051184
      66         -0.788841        1.000000        0.00069978        0.00106977        0.00001040        0.00259814        0.00031273        0.00000135        0.00005454        0.00000286        0.00054694
      67         -0.788552        1.000000        0.00766947        0.00127658        0.00000303        0.00091404        0.00011915        0.00000638        0.00055241        0.00000902        0.00007241
      68         -0.787836        1.000000        0.00635539        0.00401656        0.00002746        0.00904237        0.00113119        0.00000923        0.00048213        0.00002120        0.00158682
      69         -0.787822        1.000000        0.00533064        0.00392281        0.00002897        0.00861118        0.00116919        0.00000809        0.00040811        0.00002051        0.00182032
      70         -0.787460        1.000000        0.01026383        0.00463629        0.00000141        0.00179045        0.00071416        0.00001316        0.00068018        0.00002083        0.00058131
      71         -0.787359        1.000000        0.00854297        0.00471452        0.00000411        0.00175178        0.00065025        0.00001205        0.00056882        0.00001801        0.00060400
      72         -0.786949        1.000000        0.02523429        0.00321219        0.00001598        0.00190171        0.00021658        0.00000788        0.00178676        0.00002097        0.00008245
      73         -0.786880        1.000000        0.02633782        0.00318630        0.00001127        0.00170405        0.00018839        0.00001007        0.00184791        0.00002237        0.00008175
      74         -0.782569        1.000000        0.01028549        0.00276582        0.00000190        0.00134678        0.00048242        0.00001138        0.00064327        0.00002025        0.00065718
      75         -0.782263        1.000000        0.00537206        0.00438644        0.00000290        0.00196510        0.00052419        0.00001077        0.00032997        0.00001512        0.00090442
      76         -0.782130        1.000000        0.00353934        0.00264378        0.00001448        0.00457598        0.00078643        0.00000600        0.00022978        0.00001230        0.00130430
      77         -0.781909        1.000000        0.00134766        0.00192071        0.00001277        0.00368315        0.00056176        0.00000398        0.00008508        0.00000708        0.00149353
      78         -0.781892        1.000000        0.01688870        0.00177397        0.00000089        0.00140344        0.00131267        0.00000935        0.00112723        0.00002222        0.00070649
      79         -0.781641        1.000000        0.00193842        0.00230028        0.00002874        0.00596984        0.00011750        0.00000116        0.00011757        0.00000211        0.00022212
      80         -0.781582        1.000000        0.01922732        0.00184455        0.00000795        0.00450140        0.00221091        0.00001301        0.00130987        0.00002853        0.00082095
      81         -0.781114        1.000000        0.02572456        0.00883088        0.00001001        0.00337731        0.00037735        0.00001967        0.00157721        0.00003788        0.00049666
      82         -0.781080        1.000000        0.01709958        0.00515904        0.00002760        0.00522273        0.00023592        0.00001314        0.00105241        0.00002347        0.00028167
      83         -0.781002        1.000000        0.02125615        0.00678215        0.00002614        0.00510981        0.00024984        0.00001234        0.00130904        0.00002520        0.00030431
      84         -0.780088        1.000000        0.00864706        0.00548391        0.00001620        0.00296672        0.00093255        0.00000944        0.00049694        0.00001402        0.00057054
      85         -0.780057        1.000000        0.01247837        0.00490273        0.00000949        0.00295488        0.00100101        0.00001055        0.00071660        0.00001776        0.00058660
      86         -0.768998        1.000000        0.01594627        0.00262031        0.00002248        0.00207411        0.00089054        0.00000751        0.00081805        0.00001676        0.00034831
      87         -0.768748        1.000000        0.01675403        0.00570037        0.00001479        0.00327881        0.00058835        0.00001407        0.00078787        0.00002664        0.00021355
      88         -0.768723        1.000000        0.01709274        0.00813345        0.00000910        0.00273390        0.00058165        0.00001788        0.00080401        0.00003241        0.00034469
      89         -0.768666        1.000000        0.00597171        0.00270064        0.00001691        0.00589676        0.00129629        0.00000684        0.00031321        0.00001190        0.00114884
      90         -0.768504        1.000000        0.00046138        0.00131137        0.00001006        0.00252130        0.00061644        0.00000322        0.00002210        0.00000455        0.00170018
      91         -0.768471        1.000000        0.00188814        0.00211020        0.00002331        0.00581380        0.00102418        0.00000280        0.00010390        0.00000578        0.00111917
      92         -0.763481        1.000000        0.00224054        0.00115791        0.00000020        0.00040757        0.00027418        0.00000343        0.00008945        0.00000560        0.00019669
      93         -0.763432        1.000000        0.00133618        0.00108001        0.00000075        0.00037259        0.00017769        0.00000268        0.00005391        0.00000363        0.00019429
      94         -0.762879        1.000000        0.00987666        0.00226768        0.00000427        0.00299071        0.00080884        0.00000701        0.00044675        0.00001404        0.00069431
      95         -0.762678        1.000000        0.00881864        0.00189937        0.00000524        0.00089857        0.00016107        0.00000440        0.00038299        0.00000933        0.00007147
      96         -0.762631        1.000000        0.00454527        0.00129938        0.00002901        0.00285177        0.00012189        0.00000262        0.00019348        0.00000698        0.00032790
      97         -0.762463        1.000000        0.00280166        0.00223632        0.00001627        0.00464640        0.00081068        0.00000402        0.00012380        0.00000676        0.00138091
      98         -0.760355        1.000000        0.00457123        0.00261224        0.00000076        0.00112445        0.00059864        0.00000822        0.00017255        0.00001289        0.00074228
      99         -0.760215        1.000000        0.00278727        0.00265672        0.00000135        0.00106300        0.00045732        0.00000707        0.00010537        0.00000887        0.00076474
     100         -0.759368        1.000000        0.01513002        0.00341704        0.00001471        0.00334469        0.00113828        0.00000724        0.00062934        0.00001909        0.00145601
     101         -0.759315        1.000000        0.00806433        0.00433813        0.00001711        0.00577295        0.00098757        0.00000854        0.00033416        0.00001495        0.00207028
     102         -0.759236        1.000000        0.02223726        0.00172437        0.00000882        0.00060667        0.00149837        0.00000971        0.00093846        0.00002209        0.00052217
     103         -0.759174        1.000000        0.00639749        0.00309757        0.00004041        0.00659258        0.00053450        0.00000500        0.00025946        0.00000838        0.00128585
     104         -0.758896        1.000000        0.00112976        0.00430101        0.00006860        0.01224910        0.00107405        0.00000150        0.00004726        0.00000179        0.00127397
     105         -0.758781        1.000000        0.00552078        0.00376706        0.00002838        0.00757826        0.00156710        0.00000482        0.00023097        0.00000955        0.00158445
     106         -0.758683        1.000000        0.01558273        0.00365291        0.00004437        0.00374361        0.00007374        0.00000812        0.00060542        0.00002167        0.00019233
     107         -0.758558        1.000000        0.01326719        0.00373986        0.00002376        0.00284459        0.00010426        0.00000505        0.00050751        0.00001350        0.00027594
     108         -0.757996        1.000000        0.01900100        0.00889026        0.00000291        0.00305062        0.00196353        0.00002491        0.00067157        0.00004560        0.00103631
     109         -0.757391        1.000000        0.01270721        0.01020862        0.00000878        0.00343180        0.00151797        0.00002270        0.00044492        0.00003279        0.00106770
     110         -0.750666        1.000000        0.00953900        0.00373118        0.00001355        0.00267518        0.00069902        0.00001197        0.00029492        0.00002265        0.00080074
     111         -0.750302        1.000000        0.00272586        0.00255357        0.00006078        0.00714465        0.00007330        0.00000093        0.00009257        0.00000194        0.00020540
     112         -0.750147        1.000000        0.00766853        0.00492503        0.00000685        0.00381504        0.00112583        0.00001126        0.00024028        0.00002051        0.00173968
     113         -0.750099        1.000000        0.00408186        0.00425670        0.00001281        0.00477604        0.00094550        0.00000964        0.00012730        0.00001300        0.00239684
     114         -0.749903        1.000000        0.00645513        0.00547117        0.00000323        0.00198298        0.00059305        0.00001216        0.00019298        0.00001813        0.00106401
     115         -0.749762        1.000000        0.00531610        0.00353624        0.00008009        0.00882505        0.00018530        0.00000607        0.00017342        0.00001129        0.00029220
     116         -0.749508        1.000000        0.01166937        0.00153839        0.00000429        0.00347902        0.00251334        0.00000386        0.00040874        0.00001044        0.00095933
     117         -0.748927        1.000000        0.02524952        0.01109539        0.00001999        0.00405978        0.00099457        0.00002421        0.00074167        0.00004742        0.00062567
     118         -0.748899        1.000000        0.01571212        0.00163740        0.00000875        0.00358049        0.00315883        0.00000756        0.00053784        0.00001533        0.00137263
     119         -0.748855        1.000000        0.02046178        0.00971725        0.00002736        0.00558465        0.00161478        0.00001757        0.00059222        0.00003586        0.00062572
     120         -0.748473        1.000000        0.00509655        0.00217925        0.00001662        0.00235316        0.00074071        0.00000597        0.00015809        0.00001031        0.00149235
     121         -0.748151        1.000000        0.00377781        0.00367740        0.00001962        0.00274737        0.00093678        0.00000477        0.00010299        0.00000824        0.00085647
     122         -0.734765        1.000000        0.00015723        0.00399673        0.00008726        0.01178721        0.00059353        0.00000043        0.00000325        0.00000073        0.00020363
     123         -0.734107        1.000000        0.00835553        0.00311414        0.00002114        0.00247025        0.00089857        0.00000745        0.00015126        0.00002147        0.00064822
     124         -0.734021        1.000000        0.00956330        0.00575369        0.00000244        0.00331900        0.00090253        0.00001577        0.00019012        0.00002436        0.00219635
     125         -0.733782        1.000000        0.00119629        0.00086961        0.00001754        0.00217789        0.00108951        0.00000273        0.00002322        0.00000516        0.00200646
     126         -0.733443        1.000000        0.01324559        0.01013881        0.00000928        0.00359412        0.00087830        0.00002081        0.00025452        0.00003321        0.00119547
     127         -0.733206        1.000000        0.01655072        0.00037352        0.00000252        0.00107108        0.00357987        0.00000594        0.00038550        0.00001146        0.00130993
     128         -0.732582        1.000000        0.00169128        0.00105204        0.00000036        0.00040234        0.00024431        0.00000308        0.00002945        0.00000516        0.00027534
     129         -0.732570        1.000000        0.00089401        0.00094217        0.00000046        0.00033854        0.00017019        0.00000250        0.00001605        0.00000280        0.00025440
     130         -0.731911        1.000000        0.00148736        0.00088126        0.00002297        0.00201346        0.00023220        0.00000193        0.00002728        0.00000541        0.00060409
     131         -0.731699        1.000000        0.00347965        0.00170447        0.00003979        0.00388421        0.00013586        0.00000438        0.00006378        0.00001031        0.00035904
     132         -0.731543        1.000000        0.00526458        0.00165434        0.00000616        0.00268444        0.00081651        0.00000409        0.00010470        0.00000458        0.00071813
     133         -0.731245        1.000000        0.00276301        0.00185098        0.00000391        0.00164910        0.00052639        0.00000269        0.00005371        0.00000380        0.00082747
     134         -0.730306        1.000000        0.01288431        0.00360891        0.00007062        0.00494980        0.00028514        0.00000687        0.00023365        0.00001767        0.00079465
     135         -0.730296        1.000000        0.01488693        0.00378087        0.00006896        0.00460166        0.00037705        0.00000782        0.00027164        0.00002065        0.00052444
     136         -0.730200        1.000000        0.00917713        0.00370374        0.00000730        0.00138866        0.00124401        0.00001397        0.00014868        0.00002656        0.00076777
     137         -0.730021        1.000000        0.00412103        0.00504585        0.00000672        0.00196850        0.00089230        0.00001148        0.00006399        0.00001463        0.00080545
     138         -0.729821        1.000000        0.00823618        0.00574942        0.00004401        0.01081693        0.00264817        0.00000523        0.00016073        0.00000623        0.00304990
     139         -0.729691        1.000000        0.01085718        0.00597317        0.00002988        0.00854732        0.00252423        0.00000519        0.00020995        0.00000932        0.00304471
     140         -0.725346        1.000000        0.00260013        0.00482369        0.00008559        0.01077232        0.00101700        0.00000573        0.00003672        0.00000835        0.00101691
     141         -0.725315        1.000000        0.00031531        0.00344394        0.00007661        0.00972780        0.00081049        0.00000145        0.00000451        0.00000202        0.00110318
     142         -0.725207        1.000000        0.00717638        0.00512753        0.00002826        0.00450320        0.00150711        0.00001560        0.00009747        0.00002702        0.00147911
     143         -0.725117        1.000000        0.00621424        0.00695302        0.00000329        0.00252545        0.00126484        0.00001738        0.00008559        0.00002071        0.00193745
     144         -0.724719        1.000000        0.01243257        0.00634751        0.00000691        0.00475176        0.00090869        0.00001118        0.00018826        0.00001861        0.00226763