# Projected DOS for atomic kind C1 at iteration step i = 36, E(Fermi) =    -0.147424 a.u.
#     MO Eigenvalue [a.u.]      Occupation                 s                py                pz                px               d-2               d-1                d0               d+1               d+2
       1         -0.850213        1.000000        0.00274740        0.00004846        0.00000128        0.00012019        0.00000046        0.00000108        0.00046844        0.00000219        0.00000022
       2         -0.847833        1.000000        0.00127003        0.00014196        0.00000109        0.00019554        0.00000214        0.00000100        0.00021716        0.00000154        0.00000931
       3         -0.847829        1.000000        0.00076621        0.00006200        0.00000069        0.00017748        0.00000485        0.00000032        0.00013063        0.00000126        0.00000909
       4         -0.847171        1.000000        0.00633598        0.00026913        0.00000459        0.00080642        0.00001293        0.00000312        0.00107261        0.00000771        0.00000422
       5         -0.847064        1.000000        0.00274187        0.00034264        0.00000052        0.00018359        0.00000582        0.00000223        0.00044087        0.00000201        0.00000907
       6         -0.845697        1.000000        0.01504146        0.00038567        0.00000445        0.00039621        0.00000649        0.00000639        0.00241176        0.00001142        0.00001862
       7         -0.844726        1.000000        0.02559101        0.00023255        0.00000769        0.00036854        0.00001191        0.00000543        0.00404781        0.00001529        0.00001828
       8         -0.841062        1.000000        0.00450234        0.00028066        0.00000138        0.00025277        0.00001628        0.00000202        0.00068600        0.00000424        0.00002811
       9         -0.841021        1.000000        0.00198082        0.00044718        0.00000086        0.00028508        0.00001544        0.00000169        0.00029899        0.00000236        0.00003513
      10         -0.840701        1.000000        0.00784540        0.00067488        0.00000435        0.00082313        0.00003565        0.00000360        0.00122106        0.00000887        0.00006295
      11         -0.840394        1.000000        0.01597184        0.00075990        0.00000752        0.00147527        0.00005760        0.00000886        0.00248984        0.00001834        0.00005946
      12         -0.840056        1.000000        0.01034557        0.00023432        0.00000135        0.00014050        0.00000347        0.00000153        0.00153673        0.00000436        0.00000290
      13         -0.839362        1.000000        0.01544110        0.00038139        0.00000115        0.00040859        0.00000236        0.00000559        0.00224930        0.00000672        0.00000136
      14         -0.837739        1.000000        0.00732187        0.00091582        0.00000425        0.00105832        0.00004280        0.00000464        0.00109919        0.00000991        0.00012294
      15         -0.837697        1.000000        0.00521846        0.00098021        0.00000362        0.00090642        0.00004981        0.00000340        0.00078067        0.00000772        0.00014897
      16         -0.836883        1.000000        0.02953654        0.00026908        0.00000711        0.00076155        0.00014762        0.00000966        0.00437655        0.00002418        0.00005088
      17         -0.836085        1.000000        0.01245216        0.00086477        0.00000289        0.00232624        0.00000446        0.00000020        0.00168770        0.00000031        0.00000303
      18         -0.835561        1.000000        0.02988249        0.00206215        0.00000401        0.00071798        0.00003599        0.00001296        0.00421226        0.00002101        0.00006411
      19         -0.835553        1.000000        0.02801891        0.00256469        0.00000442        0.00089131        0.00002939        0.00000762        0.00394753        0.00001688        0.00007244
      20         -0.828741        1.000000        0.00052184        0.00023328        0.00000045        0.00016734        0.00002805        0.00000065        0.00006887        0.00000114        0.00005332
      21         -0.828712        1.000000        0.00079535        0.00020899        0.00000041        0.00016470        0.00002459        0.00000088        0.00010507        0.00000133        0.00005288
      22         -0.828011        1.000000        0.00838342        0.00029118        0.00000087        0.00048680        0.00002334        0.00000293        0.00107586        0.00000514        0.00002783
      23         -0.827970        1.000000        0.00129165        0.00093982        0.00000300        0.00152179        0.00004957        0.00000184        0.00017570        0.00000429        0.00010610
      24         -0.827918        1.000000        0.00404236        0.00106456        0.00000466        0.00183383        0.00008445        0.00000387        0.00055572        0.00000955        0.00014951
      25         -0.827637        1.000000        0.00862557        0.00135674        0.00000196        0.00079429        0.00011525        0.00000821        0.00113646        0.00000991        0.00016813
      26         -0.826767        1.000000        0.01901489        0.00163326        0.00000096        0.00127375        0.00003397        0.00000683        0.00238457        0.00000848        0.00003700
      27         -0.826624        1.000000        0.02418600        0.00132340        0.00000480        0.00163920        0.00004068        0.00000588        0.00304086        0.00001079        0.00005093
      28         -0.826507        1.000000        0.02107992        0.00277179        0.00000778        0.00263934        0.00021730        0.00001192        0.00276412        0.00002871        0.00031874
      29         -0.826353        1.000000        0.02755958        0.00285896        0.00000616        0.00199264        0.00028485        0.00001165        0.00356930        0.00002918        0.00025702
      30         -0.825845        1.000000        0.00820618        0.00216678        0.00000605        0.00248779        0.00013919        0.00000313        0.00099368        0.00000500        0.00018204
      31         -0.825765        1.000000        0.00583818        0.00201586        0.00000946        0.00406365        0.00018366        0.00000502        0.00072622        0.00000891        0.00020196
      32         -0.821116        1.000000        0.01476402        0.00299600        0.00000465        0.00189215        0.00016900        0.00001134        0.00176557        0.00002163        0.00043614
      33         -0.820971        1.000000        0.01140423        0.00336044        0.00000449        0.00184365        0.00018763        0.00000966        0.00135204        0.00001736        0.00050430
      34         -0.820803        1.000000        0.00111872        0.00210252        0.00001467        0.00618799        0.00006321        0.00000152        0.00010999        0.00000414        0.00002164
      35         -0.820177        1.000000        0.02616139        0.00036679        0.00000299        0.00089748        0.00058594        0.00001077        0.00320299        0.00002732        0.00019960
      36         -0.819761        1.000000        0.02145256        0.00317094        0.00000290        0.00138788        0.00014519        0.00000974        0.00242601        0.00001479        0.00004909
      37         -0.819534        1.000000        0.01749233        0.00410354        0.00000128        0.00171235        0.00012658        0.00000801        0.00197087        0.00001090        0.00004456
      38         -0.811807        1.000000        0.00288248        0.00100383        0.00000080        0.00047131        0.00010337        0.00000282        0.00029327        0.00000444        0.00013709
      39         -0.811771        1.000000        0.00246475        0.00095643        0.00000055        0.00038687        0.00009795        0.00000251        0.00024869        0.00000393        0.00013315
      40         -0.811304        1.000000        0.00046543        0.00158145        0.00001413        0.00463488        0.00016555        0.00000062        0.00003910        0.00000170        0.00027821
      41         -0.811104        1.000000        0.00647069        0.00097191        0.00000157        0.00102358        0.00003798        0.00000151        0.00065997        0.00000232        0.00007245
      42         -0.811077        1.000000        0.00202336        0.00144924        0.00000722        0.00281421        0.00029902        0.00000372        0.00022743        0.00000886        0.00047983
      43         -0.810753        1.000000        0.01740744        0.00100214        0.00000117        0.00067754        0.00022833        0.00001071        0.00183802        0.00001985        0.00013795
      44         -0.808642        1.000000        0.00378726        0.00165982        0.00000179        0.00087817        0.00018629        0.00000459        0.00037578        0.00000773        0.00035767
      45         -0.808570        1.000000        0.00537745        0.00164070        0.00000117        0.00088270        0.00018046        0.00000598        0.00052643        0.00000929        0.00035625
      46         -0.807929        1.000000        0.00082450        0.00231029        0.00001696        0.00659632        0.00038306        0.00000325        0.00009154        0.00000964        0.00040007
      47         -0.807858        1.000000        0.00404738        0.00191645        0.00001221        0.00408468        0.00032660        0.00000264        0.00037562        0.00000527        0.00047767
      48         -0.807720        1.000000        0.00485242        0.00180142        0.00000653        0.00305260        0.00031296        0.00000380        0.00047647        0.00000915        0.00054840
      49         -0.807675        1.000000        0.00201853        0.00302920        0.00002430        0.00868843        0.00048175        0.00000521        0.00022283        0.00001236        0.00036557
      50         -0.807332        1.000000        0.02014394        0.00100702        0.00000094        0.00033157        0.00043044        0.00000657        0.00202095        0.00001413        0.00016476
      51         -0.807273        1.000000        0.02700437        0.00547967        0.00000374        0.00292387        0.00030671        0.00001638        0.00265670        0.00003620        0.00063371
      52         -0.807172        1.000000        0.02739762        0.00618787        0.00000267        0.00269713        0.00025800        0.00001699        0.00266862        0.00003510        0.00058379
      53         -0.806689        1.000000        0.03299970        0.00093583        0.00000392        0.00035712        0.00065584        0.00001426        0.00329428        0.00002994        0.00025183
      54         -0.806028        1.000000        0.01554662        0.00493813        0.00000766        0.00241119        0.00058027        0.00001084        0.00142617        0.00001599        0.00043291
      55         -0.805809        1.000000        0.01618358        0.00583967        0.00000456        0.00264420        0.00052935        0.00001272        0.00147653        0.00001688        0.00033113
      56         -0.798131        1.000000        0.01616493        0.00500426        0.00000422        0.00263897        0.00078804        0.00001313        0.00136543        0.00002582        0.00065374
      57         -0.798025        1.000000        0.00874191        0.00327323        0.00001614        0.00691337        0.00074671        0.00000958        0.00078335        0.00002126        0.00040941
      58         -0.797872        1.000000        0.01909319        0.00692258        0.00000180        0.00270218        0.00042440        0.00001782        0.00156615        0.00003034        0.00076114
      59         -0.797465        1.000000        0.01731102        0.00178168        0.00001219        0.00181877        0.00039717        0.00000718        0.00145457        0.00001348        0.00018905
      60         -0.797375        1.000000        0.00781427        0.00079387        0.00000769        0.00174788        0.00035507        0.00000125        0.00066296        0.00000264        0.00034638
      61         -0.797178        1.000000        0.00619579        0.00229112        0.00000477        0.00212241        0.00030542        0.00000227        0.00048471        0.00000317        0.00035184
      62         -0.789830        1.000000        0.00093092        0.00047460        0.00000028        0.00024229        0.00008926        0.00000140        0.00006510        0.00000221        0.00014268
      63         -0.789770        1.000000        0.00071336        0.00050122        0.00000037        0.00023451        0.00007998        0.00000129        0.00005025        0.00000183        0.00014360
      64         -0.789085        1.000000        0.00636789        0.00097077        0.00000191        0.00050650        0.00011725        0.00000329        0.00047248        0.00000792        0.00007281
      65         -0.788957        1.000000        0.00330562        0.00141992        0.00000962        0.00380851        0.00051779        0.00000368        0.00025622        0.00000616        0.00051642
      66         -0.788840        1.000000        0.00065378        0.00105607        0.00000924        0.00260011        0.00030288        0.00000110        0.00005094        0.00000264        0.00054955
      67         -0.788552        1.000000        0.00765795        0.00130166        0.00000292        0.00095160        0.00011713        0.00000624        0.00055260        0.00000848        0.00007627
      68         -0.787837        1.000000        0.00650904        0.00403746        0.00002326        0.00900717        0.00112709        0.00000841        0.00049477        0.00002006        0.00159333
      69         -0.787822        1.000000        0.00535882        0.00391376        0.00002496        0.00856828        0.00118468        0.00000751        0.00041141        0.00001901        0.00180371
      70         -0.787459        1.000000        0.01022262        0.00461946        0.00000123        0.00180211        0.00071073        0.00001183        0.00067937        0.00001865        0.00058102
      71         -0.787358        1.000000        0.00852374        0.00470055        0.00000387        0.00174848        0.00065246        0.00001087        0.00056922        0.00001609        0.00059978
      72         -0.786949        1.000000        0.02521550        0.00321118        0.00001530        0.00190428        0.00021551        0.00000746        0.00178855        0.00001981        0.00008260
      73         -0.786879        1.000000        0.02619598        0.00318591        0.00001107        0.00172000        0.00018392        0.00000947        0.00184102        0.00002088        0.00008154
      74         -0.782568        1.000000        0.01027585        0.00276043        0.00000173        0.00135089        0.00048064        0.00001030        0.00064447        0.00001846        0.00065596
      75         -0.782261        1.000000        0.00528603        0.00431341        0.00000253        0.00193317        0.00052010        0.00000959        0.00032582        0.00001335        0.00089309
      76         -0.782131        1.000000        0.00353834        0.00265754        0.00001256        0.00458142        0.00078856        0.00000539        0.00023020        0.00001133        0.00130834
      77         -0.781911        1.000000        0.00143437        0.00193844        0.00001115        0.00376136        0.00058579        0.00000348        0.00009070        0.00000673        0.00148143
      78         -0.781888        1.000000        0.01684512        0.00176137        0.00000081        0.00141202        0.00130087        0.00000884        0.00112698        0.00002109        0.00071888
      79         -0.781644        1.000000        0.00196845        0.00234042        0.00002562        0.00590667        0.00012856        0.00000101        0.00011982        0.00000188        0.00020656
      80         -0.781580        1.000000        0.01912344        0.00183049        0.00000658        0.00458905        0.00219602        0.00001256        0.00130548        0.00002728        0.00083721
      81         -0.781112        1.000000        0.02562237        0.00878387        0.00000961        0.00339366        0.00037988        0.00001747        0.00157510        0.00003523        0.00049655
      82         -0.781078        1.000000        0.01663246        0.00497091        0.00002629        0.00521673        0.00022233        0.00001223        0.00102825        0.00002016        0.00027733
      83         -0.781002        1.000000        0.02180578        0.00698585        0.00002267        0.00500866        0.00025823        0.00001194        0.00134411        0.00002423        0.00031924
      84         -0.780090        1.000000        0.00874337        0.00546995        0.00001541        0.00302822        0.00092237        0.00000876        0.00050406        0.00001301        0.00058505
      85         -0.780060        1.000000        0.01259271        0.00501183        0.00000886        0.00290629        0.00101564        0.00001001        0.00072510        0.00001621        0.00057520
      86         -0.768993        1.000000        0.01582652        0.00263360        0.00002160        0.00213613        0.00087230        0.00000699        0.00081329        0.00001596        0.00034366
      87         -0.768744        1.000000        0.01683389        0.00579654        0.00001384        0.00323884        0.00058297        0.00001337        0.00079367        0.00002504        0.00022415
      88         -0.768717        1.000000        0.01713098        0.00806766        0.00000899        0.00286726        0.00060656        0.00001681        0.00080848        0.00002994        0.00033862
      89         -0.768671        1.000000        0.00599875        0.00272182        0.00001414        0.00578501        0.00129143        0.00000619        0.00031573        0.00001120        0.00116400
      90         -0.768510        1.000000        0.00041363        0.00125088        0.00000898        0.00251541        0.00061772        0.00000260        0.00001975        0.00000388        0.00168191
      91         -0.768474        1.000000        0.00196448        0.00211767        0.00002025        0.00578082        0.00103474        0.00000255        0.00010832        0.00000553        0.00112245
      92         -0.763480        1.000000        0.00220839        0.00114190        0.00000020        0.00040232        0.00026883        0.00000303        0.00008852        0.00000501        0.00019565
      93         -0.763432        1.000000        0.00132176        0.00106264        0.00000071        0.00036591        0.00017632        0.00000239        0.00005355        0.00000321        0.00018902
      94         -0.762878        1.000000        0.00977439        0.00225779        0.00000360        0.00305549        0.00080168        0.00000669        0.00044327        0.00001317        0.00070959
      95         -0.762677        1.000000        0.00875735        0.00202029        0.00000520        0.00078444        0.00017327        0.00000406        0.00038106        0.00000922        0.00005647
      96         -0.762632        1.000000        0.00465633        0.00114987        0.00002685        0.00297053        0.00010398        0.00000288        0.00019885        0.00000670        0.00034172
      97         -0.762464        1.000000        0.00287850        0.00227182        0.00001404        0.00463658        0.00081717        0.00000362        0.00012753        0.00000647        0.00138171
      98         -0.760354        1.000000        0.00449984        0.00257292        0.00000064        0.00111695        0.00058790        0.00000721        0.00017060        0.00001152        0.00074079
      99         -0.760214        1.000000        0.00275637        0.00263437        0.00000119        0.00104769        0.00045718        0.00000627        0.00010466        0.00000785        0.00075700
     100         -0.759363        1.000000        0.01504333        0.00348474        0.00001328        0.00340583        0.00118591        0.00000734        0.00062709        0.00001796        0.00145636
     101         -0.759315        1.000000        0.00805262        0.00436604        0.00001467        0.00574356        0.00098018        0.00000744        0.00033476        0.00001420        0.00209522
     102         -0.759233        1.000000        0.02224682        0.00143579        0.00000875        0.00092509        0.00141708        0.00000936        0.00094036        0.00002193        0.00058862
     103         -0.759179        1.000000        0.00654332        0.00335643        0.00003656        0.00619994        0.00058420        0.00000446        0.00026617        0.00000802        0.00118415
     104         -0.758901        1.000000        0.00104830        0.00425008        0.00006186        0.01236805        0.00106474        0.00000129        0.00004404        0.00000156        0.00127248
     105         -0.758782        1.000000        0.00563935        0.00395637        0.00002461        0.00738911        0.00157593        0.00000423        0.00023625        0.00000946        0.00156856
     106         -0.758682        1.000000        0.01565323        0.00351774        0.00004187        0.00381119        0.00006848        0.00000810        0.00061015        0.00002091        0.00020992
     107         -0.758557        1.000000        0.01319802        0.00371640        0.00002256        0.00287360        0.00010659        0.00000494        0.00050598        0.00001292        0.00028294
     108         -0.757997        1.000000        0.01900341        0.00890188        0.00000295        0.00305494        0.00197075        0.00002280        0.00067443        0.00004186        0.00104248
     109         -0.757391        1.000000        0.01269401        0.01020137        0.00000858        0.00343373        0.00152094        0.00002072        0.00044627        0.00002982        0.00106979
     110         -0.750665        1.000000        0.00950634        0.00371211        0.00001250        0.00268525        0.00068863        0.00001087        0.00029509        0.00002084        0.00079068
     111         -0.750300        1.000000        0.00263481        0.00255565        0.00005554        0.00717874        0.00007547        0.00000082        0.00008973        0.00000186        0.00019424
     112         -0.750147        1.000000        0.00762789        0.00472588        0.00000584        0.00393850        0.00114733        0.00001040        0.00023994        0.00001881        0.00173802
     113         -0.750099        1.000000        0.00413835        0.00437082        0.00001091        0.00463513        0.00093776        0.00000827        0.00012981        0.00001204        0.00241184
     114         -0.749904        1.000000        0.00647208        0.00553240        0.00000297        0.00199821        0.00060091        0.00001122        0.00019424        0.00001682        0.00106811
     115         -0.749761        1.000000        0.00519280        0.00354803        0.00007389        0.00893388        0.00018528        0.00000572        0.00016973        0.00001080        0.00029831
     116         -0.749510        1.000000        0.01174539        0.00153507        0.00000328        0.00342130        0.00252087        0.00000390        0.00041211        0.00001065        0.00095624
     117         -0.748924        1.000000        0.02521401        0.01104995        0.00001965        0.00405495        0.00099303        0.00002244        0.00074346        0.00004420        0.00062521
     118         -0.748900        1.000000        0.01583618        0.00152591        0.00000679        0.00366295        0.00324631        0.00000762        0.00054515        0.00001522        0.00138487
     119         -0.748853        1.000000        0.02059130        0.00995503        0.00002628        0.00536600        0.00151156        0.00001656        0.00059626        0.00003403        0.00062684
     120         -0.748479        1.000000        0.00509677        0.00213723        0.00001558        0.00239242        0.00075419        0.00000542        0.00015868        0.00000968        0.00149364
     121         -0.748153        1.000000        0.00381763        0.00371440        0.00001850        0.00275322        0.00093872        0.00000460        0.00010448        0.00000781        0.00085511
     122         -0.734764        1.000000        0.00016430        0.00401177        0.00007886        0.01180505        0.00060935        0.00000041        0.00000340        0.00000071        0.00020916
     123         -0.734104        1.000000        0.00827430        0.00308244        0.00002024        0.00247926        0.00090337        0.00000711        0.00015053        0.00002031        0.00065099
     124         -0.734023        1.000000        0.00966511        0.00577807        0.00000189        0.00331962        0.00090405        0.00001419        0.00019307        0.00002264        0.00218830
     125         -0.733782        1.000000        0.00117724        0.00085490        0.00001598        0.00217309        0.00108811        0.00000246        0.00002302        0.00000480        0.00201428
     126         -0.733443        1.000000        0.01318115        0.01016073        0.00000930        0.00360565        0.00088051        0.00001916        0.00025426        0.00003080        0.00119396
     127         -0.733208        1.000000        0.01664869        0.00035049        0.00000281        0.00103252        0.00357096        0.00000602        0.00038840        0.00001216        0.00129560
     128         -0.732581        1.000000        0.00166258        0.00104115        0.00000035        0.00039518        0.00024227        0.00000278        0.00002915        0.00000459        0.00026965
     129         -0.732569        1.000000        0.00086892        0.00091472        0.00000044        0.00033115        0.00016250        0.00000213        0.00001570        0.00000254        0.00025292
     130         -0.731911        1.000000        0.00151108        0.00086896        0.00002136        0.00203605        0.00023169        0.00000193        0.00002786        0.00000530        0.00060809
     131         -0.731699        1.000000        0.00339558        0.00170352        0.00003722        0.00396849        0.00013888        0.00000426        0.00006246        0.00001008        0.00036799
     132         -0.731544        1.000000        0.00536072        0.00165856        0.00000497        0.00263237        0.00080769        0.00000393        0.00010684        0.00000447        0.00072898
     133         -0.731246        1.000000        0.00276542        0.00183894        0.00000348        0.00167983        0.00052419        0.00000254        0.00005390        0.00000363        0.00083442
     134         -0.730304        1.000000        0.01278218        0.00370229        0.00006648        0.00490397        0.00032507        0.00000654        0.00023239        0.00001759        0.00076651
     135         -0.730292        1.000000        0.01449915        0.00379332        0.00006420        0.00469104        0.00036991        0.00000772        0.00026484        0.00002020        0.00058790
     136         -0.730198        1.000000        0.00940817        0.00363913        0.00000882        0.00143612        0.00121259        0.00001284        0.00015428        0.00002488        0.00075293
     137         -0.730020        1.000000        0.00408802        0.00501612        0.00000656        0.00196802        0.00088308        0.00001033        0.00006393        0.00001332        0.00080517
     138         -0.729827        1.000000        0.00843226        0.00577567        0.00003778        0.01069061        0.00265774        0.00000464        0.00016477        0.00000616        0.00302796
     139         -0.729694        1.000000        0.01098525        0.00595265        0.00002569        0.00851892        0.00252723        0.00000475        0.00021287        0.00000918        0.00302562
     140         -0.725345        1.000000        0.00259507        0.00487628        0.00007813        0.01075505        0.00101342        0.00000508        0.00003686        0.00000770        0.00104209
     141         -0.725315        1.000000        0.00033732        0.00340265        0.00006931        0.00979702        0.00083441        0.00000129        0.00000488        0.00000188        0.00109468
     142         -0.725206        1.000000        0.00712351        0.00511181        0.00002607        0.00450046        0.00151015        0.00001409        0.00009748        0.00002482        0.00148011
     143         -0.725116        1.000000        0.00615953        0.00693227        0.00000320        0.00250122        0.00126212        0.00001555        0.00008546        0.00001880        0.00193666
     144         -0.724717        1.000000        0.01235239        0.00633442        0.00000595        0.00478496        0.00091847        0.00001003        0.00018791        0.00001746        0.00228129