# Projected DOS for atomic kind C2 at iteration step i = 36, E(Fermi) =    -0.147424 a.u.
#     MO Eigenvalue [a.u.]      Occupation                 s                py                pz                px               d-2               d-1                d0               d+1               d+2
       1         -0.850213        1.000000        0.00196113        0.00003572        0.00000111        0.00007741        0.00000012        0.00000093        0.00036659        0.00000191        0.00000018
       2         -0.847833        1.000000        0.00062809        0.00005893        0.00000095        0.00021206        0.00000334        0.00000043        0.00011989        0.00000147        0.00000529
       3         -0.847829        1.000000        0.00035975        0.00008290        0.00000058        0.00009708        0.00000208        0.00000047        0.00006936        0.00000069        0.00000862
       4         -0.847171        1.000000        0.00218316        0.00025371        0.00000376        0.00076173        0.00000593        0.00000188        0.00042617        0.00000521        0.00000201
       5         -0.847064        1.000000        0.00324600        0.00032808        0.00000062        0.00012514        0.00000840        0.00000283        0.00055958        0.00000281        0.00000978
       6         -0.845697        1.000000        0.01172367        0.00030482        0.00000429        0.00028651        0.00000500        0.00000586        0.00205375        0.00001106        0.00001369
       7         -0.844726        1.000000        0.01919415        0.00013545        0.00000766        0.00024639        0.00000346        0.00000543        0.00343629        0.00001475        0.00000856
       8         -0.841062        1.000000        0.00316978        0.00021958        0.00000124        0.00020392        0.00001476        0.00000176        0.00052984        0.00000378        0.00002386
       9         -0.841021        1.000000        0.00155531        0.00036301        0.00000072        0.00019996        0.00001437        0.00000170        0.00025691        0.00000210        0.00002666
      10         -0.840701        1.000000        0.00223862        0.00043286        0.00000371        0.00081845        0.00003051        0.00000223        0.00041411        0.00000591        0.00005738
      11         -0.840394        1.000000        0.00639612        0.00070193        0.00000797        0.00175202        0.00004606        0.00000572        0.00112603        0.00001331        0.00005298
      12         -0.840056        1.000000        0.00961957        0.00037673        0.00000242        0.00017102        0.00000295        0.00000247        0.00165607        0.00000639        0.00000227
      13         -0.839362        1.000000        0.01990800        0.00044309        0.00000190        0.00020045        0.00000370        0.00000954        0.00321163        0.00001378        0.00000289
      14         -0.837739        1.000000        0.00280795        0.00051793        0.00000363        0.00087965        0.00003169        0.00000290        0.00048329        0.00000666        0.00009271
      15         -0.837697        1.000000        0.00209229        0.00054440        0.00000316        0.00068758        0.00003857        0.00000220        0.00036682        0.00000544        0.00011567
      16         -0.836883        1.000000        0.00618356        0.00097135        0.00001102        0.00285818        0.00009989        0.00000679        0.00108439        0.00001749        0.00003421
      17         -0.836085        1.000000        0.03563691        0.00014979        0.00000324        0.00027092        0.00001748        0.00000704        0.00580266        0.00001771        0.00000942
      18         -0.835561        1.000000        0.02630612        0.00192369        0.00000511        0.00070794        0.00005325        0.00001424        0.00415531        0.00002388        0.00007436
      19         -0.835553        1.000000        0.02384959        0.00238492        0.00000597        0.00085051        0.00004779        0.00000867        0.00388902        0.00002040        0.00008299
      20         -0.828741        1.000000        0.00023703        0.00015019        0.00000038        0.00011928        0.00002060        0.00000045        0.00003610        0.00000082        0.00004123
      21         -0.828712        1.000000        0.00050751        0.00013011        0.00000040        0.00012842        0.00001794        0.00000069        0.00007440        0.00000107        0.00003871
      22         -0.828011        1.000000        0.00082785        0.00082681        0.00000467        0.00176390        0.00005641        0.00000203        0.00011556        0.00000450        0.00011384
      23         -0.827970        1.000000        0.00061140        0.00082257        0.00000240        0.00119509        0.00003981        0.00000169        0.00008960        0.00000267        0.00006826
      24         -0.827918        1.000000        0.01058820        0.00024936        0.00000164        0.00026005        0.00004397        0.00000523        0.00156591        0.00001171        0.00003855
      25         -0.827637        1.000000        0.00557202        0.00106993        0.00000326        0.00094127        0.00014004        0.00000674        0.00080606        0.00000905        0.00019673
      26         -0.826767        1.000000        0.00215223        0.00171165        0.00000810        0.00361611        0.00013682        0.00000367        0.00030140        0.00000791        0.00025104
      27         -0.826624        1.000000        0.00288110        0.00191873        0.00001328        0.00474727        0.00018836        0.00000396        0.00039286        0.00000920        0.00022584
      28         -0.826507        1.000000        0.01955101        0.00192232        0.00000618        0.00129849        0.00015010        0.00001299        0.00292506        0.00002488        0.00017290
      29         -0.826353        1.000000        0.02115405        0.00123501        0.00000827        0.00149299        0.00019533        0.00001412        0.00307724        0.00003141        0.00017569
      30         -0.825845        1.000000        0.02512272        0.00256689        0.00000341        0.00109729        0.00006428        0.00000999        0.00364100        0.00001882        0.00008837
      31         -0.825765        1.000000        0.03413733        0.00266426        0.00000260        0.00106212        0.00006183        0.00000971        0.00503631        0.00002372        0.00005898
      32         -0.821116        1.000000        0.00547032        0.00155918        0.00000536        0.00168069        0.00013427        0.00000670        0.00076063        0.00001370        0.00039401
      33         -0.820971        1.000000        0.00454447        0.00175740        0.00000521        0.00152276        0.00015621        0.00000625        0.00063558        0.00001225        0.00045901
      34         -0.820803        1.000000        0.00016888        0.00213228        0.00001795        0.00638763        0.00011997        0.00000215        0.00001574        0.00000642        0.00004101
      35         -0.820177        1.000000        0.02751872        0.00018039        0.00000264        0.00034133        0.00046146        0.00001234        0.00388179        0.00002932        0.00015561
      36         -0.819761        1.000000        0.02664437        0.00414084        0.00000324        0.00143581        0.00021309        0.00001675        0.00348035        0.00002790        0.00011271
      37         -0.819534        1.000000        0.02232356        0.00519119        0.00000180        0.00178562        0.00015738        0.00001297        0.00298827        0.00002224        0.00010390
      38         -0.811807        1.000000        0.00195215        0.00073857        0.00000075        0.00035838        0.00008537        0.00000243        0.00023167        0.00000386        0.00010288
      39         -0.811771        1.000000        0.00170014        0.00071197        0.00000052        0.00028812        0.00008001        0.00000224        0.00020106        0.00000346        0.00010036
      40         -0.811304        1.000000        0.00012280        0.00160334        0.00001615        0.00469360        0.00019360        0.00000096        0.00001143        0.00000268        0.00029926
      41         -0.811104        1.000000        0.00406872        0.00151690        0.00000708        0.00220855        0.00027166        0.00000536        0.00052364        0.00001257        0.00040815
      42         -0.811077        1.000000        0.00477970        0.00096571        0.00000314        0.00148227        0.00005310        0.00000093        0.00057914        0.00000118        0.00013727
      43         -0.810753        1.000000        0.01819303        0.00103743        0.00000150        0.00053753        0.00017497        0.00001217        0.00216260        0.00002353        0.00010557
      44         -0.808642        1.000000        0.00209474        0.00100218        0.00000171        0.00064240        0.00012724        0.00000323        0.00024150        0.00000574        0.00027843
      45         -0.808570        1.000000        0.00317509        0.00100117        0.00000161        0.00068927        0.00012021        0.00000434        0.00035625        0.00000693        0.00026382
      46         -0.807929        1.000000        0.00061638        0.00231242        0.00002017        0.00650294        0.00034700        0.00000325        0.00007592        0.00000903        0.00038373
      47         -0.807858        1.000000        0.00324556        0.00218120        0.00001530        0.00458024        0.00033106        0.00000419        0.00033283        0.00000795        0.00061799
      48         -0.807720        1.000000        0.00261864        0.00181360        0.00000815        0.00306272        0.00023583        0.00000375        0.00028553        0.00000618        0.00057100
      49         -0.807675        1.000000        0.00103522        0.00300066        0.00002935        0.00867941        0.00044638        0.00000407        0.00012788        0.00001170        0.00032653
      50         -0.807332        1.000000        0.02273761        0.00112725        0.00000056        0.00052569        0.00044039        0.00000925        0.00275587        0.00002419        0.00020943
      51         -0.807273        1.000000        0.02385688        0.00388739        0.00000453        0.00205299        0.00018389        0.00001708        0.00279224        0.00003561        0.00042758
      52         -0.807172        1.000000        0.01695800        0.00422820        0.00000679        0.00226300        0.00021716        0.00001342        0.00200616        0.00002971        0.00056375
      53         -0.806689        1.000000        0.03252377        0.00061106        0.00000183        0.00032064        0.00067201        0.00001737        0.00375043        0.00003649        0.00025983
      54         -0.806028        1.000000        0.02387899        0.00648697        0.00000421        0.00238463        0.00054846        0.00001820        0.00263451        0.00002951        0.00034448
      55         -0.805809        1.000000        0.02077765        0.00708368        0.00000463        0.00262601        0.00050094        0.00001679        0.00230902        0.00002735        0.00033372
      56         -0.798131        1.000000        0.00479825        0.00320925        0.00001398        0.00453888        0.00028021        0.00000790        0.00048646        0.00001435        0.00071727
      57         -0.798025        1.000000        0.00445899        0.00297806        0.00002198        0.00655731        0.00076189        0.00000701        0.00049508        0.00001818        0.00041989
      58         -0.797872        1.000000        0.00657123        0.00318043        0.00000569        0.00228615        0.00036007        0.00001059        0.00065145        0.00001857        0.00100289
      59         -0.797465        1.000000        0.01420847        0.00186068        0.00000347        0.00112216        0.00062027        0.00000534        0.00148547        0.00001188        0.00024482
      60         -0.797375        1.000000        0.02602969        0.00302365        0.00000654        0.00110733        0.00055267        0.00001699        0.00256173        0.00003240        0.00020098
      61         -0.797178        1.000000        0.01730799        0.00622310        0.00000156        0.00247892        0.00039683        0.00001346        0.00167065        0.00002194        0.00013352
      62         -0.789830        1.000000        0.00046971        0.00027505        0.00000033        0.00016333        0.00005556        0.00000096        0.00004019        0.00000150        0.00010262
      63         -0.789770        1.000000        0.00038095        0.00030014        0.00000034        0.00015836        0.00005267        0.00000093        0.00003316        0.00000133        0.00010639
      64         -0.789085        1.000000        0.00578079        0.00102705        0.00000294        0.00051661        0.00006869        0.00000337        0.00050771        0.00000811        0.00004905
      65         -0.788957        1.000000        0.00179189        0.00150277        0.00001432        0.00418718        0.00045182        0.00000282        0.00015994        0.00000511        0.00049170
      66         -0.788840        1.000000        0.00089772        0.00112992        0.00001026        0.00265584        0.00032676        0.00000190        0.00008500        0.00000396        0.00056648
      67         -0.788552        1.000000        0.00871453        0.00132467        0.00000187        0.00066422        0.00014165        0.00000796        0.00071226        0.00001127        0.00006850
      68         -0.787837        1.000000        0.00188565        0.00368689        0.00003580        0.00977731        0.00096430        0.00000559        0.00017818        0.00001317        0.00154037
      69         -0.787822        1.000000        0.00153205        0.00364207        0.00003666        0.00936517        0.00099981        0.00000539        0.00014519        0.00001312        0.00176822
      70         -0.787459        1.000000        0.00740778        0.00365705        0.00000165        0.00149392        0.00060249        0.00001067        0.00060056        0.00001695        0.00047939
      71         -0.787358        1.000000        0.00608723        0.00372677        0.00000348        0.00141994        0.00055558        0.00000992        0.00050224        0.00001468        0.00049563
      72         -0.786949        1.000000        0.02959813        0.00383721        0.00000804        0.00138158        0.00032390        0.00001314        0.00260735        0.00003433        0.00014232
      73         -0.786879        1.000000        0.03088391        0.00392518        0.00000485        0.00137696        0.00026847        0.00001597        0.00267893        0.00003565        0.00013252
      74         -0.782568        1.000000        0.00751151        0.00213143        0.00000232        0.00143757        0.00028653        0.00000882        0.00055890        0.00001551        0.00051858
      75         -0.782261        1.000000        0.00284560        0.00264438        0.00000311        0.00133487        0.00035635        0.00000684        0.00022000        0.00000947        0.00074417
      76         -0.782131        1.000000        0.00349776        0.00232318        0.00001773        0.00434864        0.00077406        0.00000551        0.00026159        0.00001175        0.00114737
      77         -0.781911        1.000000        0.00170608        0.00231508        0.00001231        0.00373206        0.00055677        0.00000419        0.00012810        0.00000671        0.00132534
      78         -0.781888        1.000000        0.00024725        0.00227372        0.00002769        0.00664287        0.00035426        0.00000140        0.00001963        0.00000404        0.00035672
      79         -0.781644        1.000000        0.01727703        0.00150320        0.00000207        0.00074179        0.00101326        0.00000921        0.00145808        0.00002171        0.00057501
      80         -0.781580        1.000000        0.00469809        0.00363496        0.00004026        0.01064805        0.00135665        0.00000606        0.00039280        0.00001432        0.00062389
      81         -0.781112        1.000000        0.01753516        0.00514679        0.00000751        0.00250678        0.00033604        0.00001708        0.00135953        0.00003161        0.00086187
      82         -0.781078        1.000000        0.01774897        0.00244962        0.00000984        0.00176203        0.00064303        0.00001344        0.00137540        0.00002404        0.00055605
      83         -0.781002        1.000000        0.02114154        0.00430680        0.00001341        0.00215417        0.00051883        0.00001284        0.00167978        0.00003110        0.00058543
      84         -0.780090        1.000000        0.02282064        0.01003455        0.00001289        0.00385152        0.00119840        0.00002291        0.00167665        0.00003905        0.00052606
      85         -0.780060        1.000000        0.02157456        0.00982143        0.00000784        0.00395176        0.00120746        0.00002079        0.00158261        0.00003575        0.00049799
      86         -0.768993        1.000000        0.00183764        0.00371179        0.00004716        0.00880993        0.00033076        0.00000289        0.00011147        0.00000464        0.00051847
      87         -0.768744        1.000000        0.00288594        0.00242017        0.00002142        0.00416448        0.00038927        0.00000598        0.00017423        0.00000861        0.00118720
      88         -0.768717        1.000000        0.00514514        0.00408711        0.00000542        0.00282528        0.00064189        0.00001168        0.00032044        0.00001686        0.00171681
      89         -0.768671        1.000000        0.01828346        0.00399759        0.00000151        0.00211917        0.00170579        0.00001269        0.00118756        0.00003012        0.00063104
      90         -0.768510        1.000000        0.01200644        0.00547342        0.00001360        0.00239768        0.00062102        0.00001173        0.00070866        0.00002340        0.00024361
      91         -0.768474        1.000000        0.01805814        0.00362439        0.00000458        0.00174297        0.00138456        0.00001369        0.00111914        0.00002685        0.00046742
      92         -0.763480        1.000000        0.00165240        0.00093249        0.00000010        0.00032123        0.00021473        0.00000283        0.00008492        0.00000462        0.00015139
      93         -0.763432        1.000000        0.00096045        0.00087643        0.00000053        0.00030619        0.00014162        0.00000227        0.00005156        0.00000303        0.00015117
      94         -0.762878        1.000000        0.00282203        0.00235752        0.00002157        0.00544204        0.00079653        0.00000369        0.00016235        0.00000622        0.00103484
      95         -0.762677        1.000000        0.00209830        0.00142603        0.00001854        0.00301942        0.00023398        0.00000105        0.00011604        0.00000222        0.00060364
      96         -0.762632        1.000000        0.01032394        0.00115457        0.00001470        0.00102669        0.00011748        0.00000654        0.00055217        0.00001544        0.00011185
      97         -0.762464        1.000000        0.00788869        0.00294274        0.00000644        0.00288651        0.00077639        0.00000753        0.00043885        0.00001398        0.00093884
      98         -0.760354        1.000000        0.00196046        0.00136957        0.00000127        0.00075510        0.00031112        0.00000446        0.00009727        0.00000653        0.00051556
      99         -0.760214        1.000000        0.00146021        0.00160534        0.00000113        0.00070291        0.00030033        0.00000461        0.00007578        0.00000556        0.00058067
     100         -0.759363        1.000000        0.00101285        0.00365748        0.00004390        0.00945652        0.00122615        0.00000353        0.00005818        0.00000614        0.00211980
     101         -0.759315        1.000000        0.00151432        0.00305544        0.00003059        0.00693211        0.00110751        0.00000465        0.00008159        0.00000571        0.00243415
     102         -0.759233        1.000000        0.00364212        0.00425474        0.00005877        0.01209201        0.00132485        0.00000378        0.00018781        0.00000579        0.00135708
     103         -0.759179        1.000000        0.00608925        0.00325938        0.00004553        0.00603070        0.00067102        0.00000276        0.00033993        0.00000683        0.00137241
     104         -0.758901        1.000000        0.02309571        0.00219418        0.00001533        0.00097389        0.00110339        0.00001078        0.00126901        0.00002729        0.00040317
     105         -0.758782        1.000000        0.01533197        0.00275579        0.00000562        0.00246961        0.00158373        0.00000823        0.00085184        0.00002099        0.00107049
     106         -0.758682        1.000000        0.02056644        0.00485777        0.00003053        0.00302564        0.00001035        0.00001395        0.00103427        0.00003332        0.00004900
     107         -0.758557        1.000000        0.01956770        0.00583661        0.00000955        0.00212444        0.00000859        0.00001201        0.00100496        0.00002875        0.00001636
     108         -0.757997        1.000000        0.01613292        0.00843064        0.00000175        0.00288444        0.00186510        0.00002449        0.00074162        0.00004400        0.00105633
     109         -0.757391        1.000000        0.01029998        0.00928654        0.00000733        0.00311841        0.00137914        0.00002160        0.00049586        0.00003066        0.00102333
     110         -0.750665        1.000000        0.00819144        0.00347837        0.00001279        0.00300059        0.00052611        0.00001069        0.00031504        0.00001919        0.00070186
     111         -0.750300        1.000000        0.00067470        0.00317309        0.00006265        0.00907455        0.00028204        0.00000047        0.00003064        0.00000074        0.00032034
     112         -0.750147        1.000000        0.00396217        0.00240107        0.00001077        0.00266258        0.00103253        0.00000725        0.00016705        0.00001384        0.00153264
     113         -0.750099        1.000000        0.00112732        0.00203851        0.00001619        0.00372097        0.00073411        0.00000396        0.00004826        0.00000491        0.00204183
     114         -0.749904        1.000000        0.00547811        0.00580134        0.00000441        0.00251142        0.00065128        0.00001314        0.00022124        0.00001847        0.00122210
     115         -0.749761        1.000000        0.00172461        0.00445093        0.00008542        0.01167946        0.00052009        0.00000418        0.00006476        0.00000773        0.00049261
     116         -0.749510        1.000000        0.01453964        0.00087597        0.00000064        0.00123635        0.00229791        0.00000560        0.00071278        0.00001543        0.00081951
     117         -0.748924        1.000000        0.01610171        0.00751398        0.00000380        0.00297231        0.00053818        0.00001926        0.00065640        0.00003479        0.00120550
     118         -0.748900        1.000000        0.01778488        0.00114648        0.00000324        0.00184870        0.00304136        0.00001078        0.00079984        0.00002081        0.00147363
     119         -0.748853        1.000000        0.01092635        0.00461069        0.00001487        0.00256484        0.00067857        0.00001306        0.00045005        0.00002294        0.00152872
     120         -0.748479        1.000000        0.02126563        0.01106213        0.00002245        0.00514017        0.00182865        0.00002212        0.00084371        0.00004599        0.00071391
     121         -0.748153        1.000000        0.01536264        0.01032048        0.00003059        0.00463881        0.00159909        0.00001980        0.00060649        0.00003706        0.00061754
     122         -0.734764        1.000000        0.00028134        0.00409531        0.00008646        0.01208250        0.00076758        0.00000033        0.00000816        0.00000045        0.00026038
     123         -0.734104        1.000000        0.00386457        0.00361846        0.00000836        0.00332000        0.00079893        0.00000996        0.00010918        0.00001152        0.00232841
     124         -0.734023        1.000000        0.01337337        0.00548162        0.00001427        0.00242281        0.00101868        0.00001484        0.00035300        0.00003762        0.00041103
     125         -0.733782        1.000000        0.00089186        0.00079995        0.00001504        0.00209404        0.00106373        0.00000298        0.00002782        0.00000461        0.00217936
     126         -0.733443        1.000000        0.01070752        0.01000934        0.00001202        0.00354687        0.00090815        0.00002087        0.00031125        0.00003173        0.00099073
     127         -0.733208        1.000000        0.01735986        0.00025124        0.00000550        0.00054316        0.00319334        0.00000738        0.00057336        0.00001621        0.00111573
     128         -0.732581        1.000000        0.00095910        0.00075785        0.00000052        0.00031947        0.00015129        0.00000215        0.00002600        0.00000334        0.00022261
     129         -0.732569        1.000000        0.00056554        0.00066247        0.00000033        0.00024622        0.00011766        0.00000183        0.00001553        0.00000198        0.00020185
     130         -0.731911        1.000000        0.00089075        0.00082138        0.00002372        0.00214342        0.00028048        0.00000176        0.00002224        0.00000485        0.00072471
     131         -0.731699        1.000000        0.00031429        0.00191742        0.00004380        0.00547115        0.00038004        0.00000211        0.00000641        0.00000421        0.00060287
     132         -0.731544        1.000000        0.00813543        0.00148211        0.00000171        0.00112917        0.00059281        0.00000675        0.00019936        0.00001114        0.00049872
     133         -0.731246        1.000000        0.00311154        0.00188122        0.00000286        0.00141259        0.00047832        0.00000292        0.00008806        0.00000473        0.00070800
     134         -0.730304        1.000000        0.00074896        0.00373207        0.00009046        0.01070380        0.00147618        0.00000280        0.00001720        0.00000293        0.00279745
     135         -0.730292        1.000000        0.00038162        0.00450085        0.00009604        0.01277817        0.00179573        0.00000483        0.00000862        0.00000562        0.00293648
     136         -0.730198        1.000000        0.00657657        0.00414565        0.00001088        0.00262408        0.00121924        0.00001148        0.00015228        0.00002018        0.00091915
     137         -0.730020        1.000000        0.00392459        0.00476533        0.00000948        0.00190130        0.00079881        0.00001073        0.00009997        0.00001373        0.00079350
     138         -0.729827        1.000000        0.02487004        0.00492020        0.00001071        0.00167686        0.00101800        0.00001218        0.00067953        0.00003199        0.00050386
     139         -0.729694        1.000000        0.02228351        0.00621575        0.00000529        0.00271633        0.00129402        0.00001050        0.00063065        0.00002866        0.00094598
     140         -0.725345        1.000000        0.00131194        0.00442048        0.00008515        0.01099951        0.00105208        0.00000394        0.00002842        0.00000498        0.00103444
     141         -0.725315        1.000000        0.00029281        0.00351368        0.00007543        0.00996799        0.00098194        0.00000125        0.00000703        0.00000154        0.00121512
     142         -0.725206        1.000000        0.00305548        0.00336763        0.00002691        0.00399917        0.00096306        0.00000903        0.00006386        0.00001388        0.00118067
     143         -0.725116        1.000000        0.00326021        0.00474549        0.00000367        0.00193410        0.00090988        0.00001254        0.00007580        0.00001326        0.00175044
     144         -0.724717        1.000000        0.00488161        0.00497872        0.00002934        0.00681097        0.00143471        0.00000817        0.00011151        0.00000823        0.00345428