# Projected DOS for atomic kind H at iteration step i = 36, E(Fermi) =    -0.147424 a.u. -0.147424 a.u.
#     MO Eigenva.u. -0.147424 a.u. [a.u.]      Occupation                 s                py                pz                px
       1         -0.850214        1.000000        0.00194841        0.00002880        0.00133765        0.00003112
       2         -0.847834        1.000000        0.00014096        0.00005669        0.00011764        0.00017622
       3         -0.847830        1.000000        0.00008638        0.00004635        0.00007169        0.00009661
       4         -0.847175        1.000000        0.00102224        0.00025150        0.00079741        0.00071635
       5         -0.847060        1.000000        0.00455208        0.00054672        0.00328379        0.00022738
       6         -0.845697        1.000000        0.01211749        0.00032236        0.00852625        0.00018752
       7         -0.844728        1.000000        0.02037258        0.00013183        0.01413300        0.00020514
       8         -0.841062        1.000000        0.00267548        0.00023074        0.00193619        0.00011915
       9         -0.841022        1.000000        0.00192795        0.00037496        0.00146633        0.00015070
      10         -0.840703        1.000000        0.00113239        0.00036425        0.00091764        0.00085668
      11         -0.840396        1.000000        0.00220309        0.00071501        0.00183685        0.00197371
      12         -0.840056        1.000000        0.01074656        0.00074724        0.00773452        0.00034580
      13         -0.839360        1.000000        0.02774866        0.00075914        0.02028419        0.00040494
      14         -0.837740        1.000000        0.00080204        0.00032821        0.00068167        0.00076077
      15         -0.837698        1.000000        0.00056770        0.00029315        0.00048856        0.00058892
      16         -0.836886        1.000000        0.00682447        0.00098972        0.00534285        0.00287503
      17         -0.836081        1.000000        0.04013033        0.00038875        0.02918468        0.00085333
      18         -0.835561        1.000000        0.02805865        0.00269685        0.02122515        0.00105061
      19         -0.835553        1.000000        0.02447004        0.00347405        0.01841812        0.00132960
      20         -0.828742        1.000000        0.00004135        0.00004178        0.00003717        0.00005523
      21         -0.828713        1.000000        0.00008156        0.00004820        0.00007568        0.00010361
      22         -0.828012        1.000000        0.00748310        0.00043084        0.00577153        0.00055346
      23         -0.827968        1.000000        0.00375561        0.00117027        0.00307527        0.00069500
      24         -0.827917        1.000000        0.00337237        0.00045920        0.00270420        0.00113656
      25         -0.827639        1.000000        0.00147519        0.00076675        0.00137365        0.00174941
      26         -0.826772        1.000000        0.01990561        0.00218163        0.01575168        0.00175689
      27         -0.826628        1.000000        0.02551282        0.00177383        0.01987779        0.00191407
      28         -0.826507        1.000000        0.00551023        0.00194531        0.00474985        0.00325990
      29         -0.826349        1.000000        0.00855054        0.00226196        0.00722986        0.00350692
      30         -0.825840        1.000000        0.02243540        0.00326510        0.01777215        0.00178174
      31         -0.825766        1.000000        0.02441233        0.00346526        0.01928048        0.00267510
      32         -0.821118        1.000000        0.00159491        0.00078556        0.00144187        0.00130124
      33         -0.820972        1.000000        0.00136678        0.00077167        0.00124808        0.00120699
      34         -0.820804        1.000000        0.01902591        0.00062332        0.01483255        0.00176009
      35         -0.820174        1.000000        0.00614009        0.00184433        0.00558714        0.00527722
      36         -0.819760        1.000000        0.02624624        0.00617150        0.02177517        0.00226515
      37         -0.819534        1.000000        0.02279772        0.00711831        0.01921206        0.00261881
      38         -0.811807        1.000000        0.00106504        0.00054995        0.00093835        0.00022329
      39         -0.811772        1.000000        0.00101017        0.00046759        0.00089955        0.00017952
      40         -0.811305        1.000000        0.01299210        0.00149911        0.01070241        0.00153332
      41         -0.811106        1.000000        0.00463979        0.00130288        0.00401307        0.00162673
      42         -0.811074        1.000000        0.00660263        0.00154435        0.00557768        0.00159650
      43         -0.810752        1.000000        0.00354508        0.00128029        0.00337243        0.00324906
      44         -0.808643        1.000000        0.00036905        0.00028540        0.00034366        0.00037680
      45         -0.808571        1.000000        0.00062946        0.00034698        0.00060547        0.00062484
      46         -0.807929        1.000000        0.01288198        0.00173785        0.01056305        0.00224282
      47         -0.807857        1.000000        0.01705680        0.00291284        0.01447649        0.00187332
      48         -0.807719        1.000000        0.00948942        0.00359123        0.00820224        0.00186673
      49         -0.807675        1.000000        0.01470649        0.00160010        0.01197511        0.00297806
      50         -0.807333        1.000000        0.00583072        0.00187585        0.00546834        0.00448366
      51         -0.807275        1.000000        0.00448762        0.00212403        0.00423597        0.00371164
      52         -0.807175        1.000000        0.00420281        0.00218177        0.00396204        0.00334976
      53         -0.806689        1.000000        0.00858722        0.00252664        0.00813102        0.00671655
      54         -0.806025        1.000000        0.01992496        0.00731663        0.01752941        0.00279723
      55         -0.805808        1.000000        0.01729748        0.00735220        0.01540267        0.00280679
      56         -0.798131        1.000000        0.00423240        0.00140287        0.00370322        0.00195826
      57         -0.798026        1.000000        0.00714583        0.00104193        0.00584056        0.00276520
      58         -0.797875        1.000000        0.00257767        0.00146143        0.00244209        0.00167034
      59         -0.797469        1.000000        0.01258671        0.00462472        0.01142788        0.00390843
      60         -0.797370        1.000000        0.01065087        0.00403517        0.00971592        0.00375508
      61         -0.797175        1.000000        0.01778045        0.00740431        0.01610050        0.00279771
      62         -0.789831        1.000000        0.00005955        0.00004657        0.00005692        0.00005695
      63         -0.789771        1.000000        0.00004573        0.00004555        0.00004328        0.00005013
      64         -0.789084        1.000000        0.00176623        0.00082453        0.00164611        0.00119616
      65         -0.788956        1.000000        0.00570331        0.00104468        0.00486837        0.00170292
      66         -0.788841        1.000000        0.00382449        0.00135889        0.00330462        0.00104396
      67         -0.788552        1.000000        0.00286942        0.00103997        0.00281015        0.00230835
      68         -0.787836        1.000000        0.01162382        0.00277126        0.00991739        0.00357988
      69         -0.787822        1.000000        0.01127188        0.00316595        0.00965795        0.00345784
      70         -0.787460        1.000000        0.00504582        0.00261891        0.00464713        0.00101441
      71         -0.787359        1.000000        0.00407569        0.00261469        0.00373856        0.00098892
      72         -0.786949        1.000000        0.00841379        0.00291661        0.00798572        0.00533628
      73         -0.786880        1.000000        0.00839370        0.00299415        0.00804842        0.00566308
      74         -0.782569        1.000000        0.00150251        0.00065994        0.00140326        0.00101616
      75         -0.782263        1.000000        0.00076188        0.00059220        0.00071095        0.00062060
      76         -0.782130        1.000000        0.00818077        0.00266510        0.00712961        0.00195662
      77         -0.781909        1.000000        0.00805489        0.00349699        0.00724775        0.00185935
      78         -0.781892        1.000000        0.00499520        0.00134711        0.00434094        0.00268587
      79         -0.781641        1.000000        0.00536674        0.00130769        0.00485057        0.00293378
      80         -0.781582        1.000000        0.00742307        0.00156871        0.00611908        0.00424303
      81         -0.781114        1.000000        0.00497498        0.00246108        0.00469502        0.00304449
      82         -0.781080        1.000000        0.00769641        0.00219972        0.00724293        0.00427732
      83         -0.781002        1.000000        0.00724461        0.00251660        0.00678854        0.00400724
      84         -0.780088        1.000000        0.01636323        0.00930784        0.01492648        0.00354228
      85         -0.780057        1.000000        0.01853220        0.00959885        0.01702036        0.00368101
      86         -0.768998        1.000000        0.00702340        0.00144834        0.00630607        0.00283218
      87         -0.768748        1.000000        0.00744536        0.00274856        0.00677356        0.00241226
      88         -0.768723        1.000000        0.00368071        0.00244907        0.00332607        0.00157940
      89         -0.768666        1.000000        0.00624312        0.00230595        0.00535687        0.00295016
      90         -0.768504        1.000000        0.00783412        0.00483730        0.00703337        0.00210978
      91         -0.768471        1.000000        0.00731831        0.00311395        0.00646090        0.00288273
      92         -0.763481        1.000000        0.00083398        0.00050370        0.00075274        0.00018504
      93         -0.763432        1.000000        0.00045518        0.00034770        0.00041222        0.00012857
      94         -0.762879        1.000000        0.00359451        0.00127633        0.00296571        0.00194779
      95         -0.762678        1.000000        0.00371045        0.00134798        0.00336976        0.00201539
      96         -0.762631        1.000000        0.00405758        0.00120224        0.00367083        0.00180318
      97         -0.762463        1.000000        0.00384004        0.00123964        0.00320832        0.00193462
      98         -0.760355        1.000000        0.00031903        0.00020933        0.00028226        0.00021277
      99         -0.760215        1.000000        0.00019360        0.00016600        0.00017226        0.00016378
     100         -0.759368        1.000000        0.00677775        0.00225195        0.00581369        0.00306993
     101         -0.759315        1.000000        0.00638908        0.00270040        0.00543434        0.00247528
     102         -0.759236        1.000000        0.00668403        0.00187928        0.00569026        0.00368337
     103         -0.759174        1.000000        0.00837911        0.00223376        0.00742490        0.00323252
     104         -0.758896        1.000000        0.00771977        0.00197917        0.00671395        0.00379734
     105         -0.758781        1.000000        0.00602945        0.00186456        0.00500101        0.00325613
     106         -0.758683        1.000000        0.00750813        0.00258716        0.00679165        0.00359072
     107         -0.758558        1.000000        0.00604313        0.00260612        0.00551539        0.00331475
     108         -0.757996        1.000000        0.00898826        0.00527625        0.00797062        0.00194452
     109         -0.757391        1.000000        0.00671816        0.00489205        0.00598716        0.00175633
     110         -0.750666        1.000000        0.00218858        0.00076002        0.00185809        0.00094369
     111         -0.750302        1.000000        0.00716489        0.00081419        0.00622047        0.00187330
     112         -0.750147        1.000000        0.00435286        0.00237023        0.00359877        0.00150813
     113         -0.750099        1.000000        0.00600569        0.00242311        0.00508849        0.00148714
     114         -0.749903        1.000000        0.00139451        0.00082786        0.00121845        0.00087746
     115         -0.749762        1.000000        0.00947518        0.00109284        0.00826651        0.00281275
     116         -0.749508        1.000000        0.00259334        0.00109431        0.00188363        0.00302931
     117         -0.748927        1.000000        0.00499536        0.00266246        0.00435958        0.00241287
     118         -0.748899        1.000000        0.00457729        0.00204237        0.00350864        0.00389358
     119         -0.748855        1.000000        0.00736867        0.00373846        0.00632384        0.00285059
     120         -0.748473        1.000000        0.01170635        0.00623265        0.01011470        0.00298624
     121         -0.748151        1.000000        0.01343731        0.00855007        0.01158955        0.00331326
     122         -0.734765        1.000000        0.00843078        0.00056095        0.00691648        0.00159985
     123         -0.734107        1.000000        0.00570398        0.00264584        0.00460565        0.00138066
     124         -0.734021        1.000000        0.00455392        0.00213804        0.00367955        0.00139838
     125         -0.733782        1.000000        0.00657237        0.00380216        0.00530978        0.00171845
     126         -0.733443        1.000000        0.00211718        0.00129343        0.00166696        0.00119413
     127         -0.733206        1.000000        0.00266807        0.00140348        0.00175667        0.00355657
     128         -0.732582        1.000000        0.00014841        0.00007866        0.00011696        0.00007767
     129         -0.732570        1.000000        0.00007484        0.00005066        0.00005811        0.00004655
     130         -0.731911        1.000000        0.00234269        0.00075910        0.00183662        0.00073637
     131         -0.731699        1.000000        0.00435292        0.00075373        0.00356366        0.00124330
     132         -0.731543        1.000000        0.00201846        0.00062630        0.00148469        0.00129489
     133         -0.731245        1.000000        0.00193942        0.00097610        0.00148313        0.00090116
     134         -0.730306        1.000000        0.00896548        0.00244755        0.00727283        0.00292349
     135         -0.730296        1.000000        0.00938093        0.00246179        0.00759234        0.00298680
     136         -0.730200        1.000000        0.00336271        0.00177829        0.00268326        0.00085877
     137         -0.730021        1.000000        0.00248359        0.00149350        0.00199981        0.00062499
     138         -0.729821        1.000000        0.00596597        0.00206940        0.00450404        0.00362339
     139         -0.729691        1.000000        0.00482867        0.00201088        0.00356176        0.00339889
     140         -0.725346        1.000000        0.00752951        0.00087951        0.00597856        0.00144432
     141         -0.725315        1.000000        0.00752046        0.00101926        0.00594133        0.00149280
     142         -0.725207        1.000000        0.00293973        0.00050543        0.00229992        0.00069053
     143         -0.725117        1.000000        0.00071227        0.00037984        0.00054772        0.00034235
     144         -0.724719        1.000000        0.00520609        0.00204572        0.00391223        0.00211342
     145         -0.724450        1.000000        0.00492566        0.00217110        0.00374324        0.00207839
     146         -0.724152        1.000000        0.00592073        0.00226470        0.00458454        0.00209444
     147         -0.724069        1.000000        0.00666544        0.00231541        0.00525935        0.00246123
     148         -0.723857        1.000000        0.00241550        0.00118480        0.00154772        0.00287067
     149         -0.723769        1.000000        0.00280883        0.00148288        0.00177836        0.00372375
     150         -0.723286        1.000000        0.01031333        0.00569970        0.00792175        0.00213639
     151         -0.722593        1.000000        0.01026895        0.00605514        0.00794967        0.00222162
     152         -0.713657        1.000000        0.00634992        0.00039011        0.00472119        0.00078373
     153         -0.713425        1.000000        0.00963845        0.00059955        0.00718364        0.00136937
     154         -0.712984        1.000000        0.00202359        0.00091234        0.00137381        0.00038041
     155         -0.712977        1.000000        0.00422890        0.00122739        0.00304134        0.00123708
     156         -0.712697        1.000000        0.00251944        0.00084598        0.00183481        0.00092530
     157         -0.712562        1.000000        0.00300405        0.00179987        0.00209619        0.00099775
     158         -0.711731        1.000000        0.00486572        0.00218038        0.00333971        0.00246162
     159         -0.711484        1.000000        0.00770251        0.00361980        0.00550676        0.00229045
     160         -0.711385        1.000000        0.00584737        0.00262384        0.00417594        0.00178152
     161         -0.711134        1.000000        0.00545481        0.00246783        0.00390023        0.00185899
     162         -0.711103        1.000000        0.01069285        0.00544250        0.00776517        0.00246380
     163         -0.710878        1.000000        0.00254012        0.00142569        0.00139013        0.00379034
     164         -0.698166        1.000000        0.00032479        0.00015801        0.00020251        0.00006958
     165         -0.698156        1.000000        0.00031837        0.00016556        0.00021899        0.00006245
     166         -0.697962        1.000000        0.00522135        0.00097399        0.00354366        0.00080817
     167         -0.697586        1.000000        0.00582647        0.00108881        0.00399937        0.00111032
     168         -0.696999        1.000000        0.00098028        0.00050076        0.00056009        0.00095397
     169         -0.696908        1.000000        0.00159512        0.00054628        0.00093023        0.00121232
     170         -0.696132        1.000000        0.00763595        0.00028604        0.00518120        0.00074583
     171         -0.695397        1.000000        0.00112148        0.00027610        0.00069726        0.00025869
     172         -0.695264        1.000000        0.00100214        0.00017462        0.00063081        0.00016324
     173         -0.695243        1.000000        0.00826394        0.00101427        0.00564768        0.00100907
     174         -0.695006        1.000000        0.00744234        0.00109464        0.00503175        0.00106548
     175         -0.694766        1.000000        0.00548919        0.00204491        0.00352803        0.00110080
     176         -0.694664        1.000000        0.00446609        0.00172186        0.00293777        0.00097115
     177         -0.694599        1.000000        0.00331982        0.00101685        0.00213376        0.00077870
     178         -0.694440        1.000000        0.00576670        0.00142769        0.00383206        0.00110984
     179         -0.693867        1.000000        0.00826523        0.00179258        0.00543473        0.00196833
     180         -0.693798        1.000000        0.00479143        0.00173429        0.00297335        0.00132433
     181         -0.693507        1.000000        0.00491161        0.00145477        0.00304689        0.00221625
     182         -0.693328        1.000000        0.00160039        0.00096055        0.00069363        0.00264600
     183         -0.693322        1.000000        0.00409988        0.00166848        0.00248574        0.00224068
     184         -0.692908        1.000000        0.00282135        0.00127798        0.00149627        0.00281524
     185         -0.692899        1.000000        0.00232510        0.00118428        0.00119304        0.00272610
     186         -0.692356        1.000000        0.00512803        0.00248560        0.00319845        0.00096544
     187         -0.692355        1.000000        0.00570857        0.00267079        0.00372022        0.00121294
     188         -0.687127        1.000000        0.00867917        0.00053865        0.00562522        0.00089193
     189         -0.686973        1.000000        0.00672220        0.00055822        0.00429140        0.00071216
     190         -0.685918        1.000000        0.00306721        0.00069457        0.00171713        0.00068380
     191         -0.685869        1.000000        0.00167041        0.00063759        0.00104024        0.00044105
     192         -0.685683        1.000000        0.00388530        0.00124525        0.00232932        0.00132057
     193         -0.685348        1.000000        0.00715658        0.00176633        0.00439664        0.00153044
     194         -0.685279        1.000000        0.00429761        0.00141473        0.00256429        0.00128420
     195         -0.685007        1.000000        0.00510978        0.00162271        0.00304732        0.00128448
     196         -0.684565        1.000000        0.00258219        0.00122380        0.00132785        0.00216403
     197         -0.684420        1.000000        0.01230862        0.00470333        0.00761661        0.00194767
     198         -0.684137        1.000000        0.00185980        0.00103085        0.00076658        0.00282960
     199         -0.683858        1.000000        0.00843464        0.00388675        0.00486515        0.00174027
     200         -0.674708        1.000000        0.00587217        0.00023685        0.00351145        0.00049192
     201         -0.674404        1.000000        0.00921718        0.00037586        0.00542561        0.00090023
     202         -0.673938        1.000000        0.00253031        0.00051045        0.00138186        0.00048433
     203         -0.673645        1.000000        0.00242553        0.00064834        0.00136898        0.00047897
     204         -0.673590        1.000000        0.00317320        0.00104966        0.00159181        0.00057837
     205         -0.673370        1.000000        0.00263230        0.00079450        0.00129177        0.00056398
     206         -0.672555        1.000000        0.00596516        0.00179034        0.00322422        0.00147623
     207         -0.672454        1.000000        0.00583051        0.00179110        0.00315961        0.00146403
     208         -0.672385        1.000000        0.00665244        0.00200940        0.00369988        0.00120285
     209         -0.672132        1.000000        0.00617965        0.00139967        0.00319473        0.00125779
     210         -0.672056        1.000000        0.00446258        0.00127291        0.00233311        0.00089739
     211         -0.671907        1.000000        0.00254280        0.00103273        0.00119006        0.00163627
     212         -0.665291        1.000000        0.00438265        0.00013616        0.00244122        0.00038381
     213         -0.664314        1.000000        0.00949037        0.00202265        0.00491111        0.00122208
     214         -0.663991        1.000000        0.00763883        0.00106436        0.00340159        0.00106879
     215         -0.661071        1.000000        0.00008134        0.00001351        0.00003897        0.00001034
     216         -0.661069        1.000000        0.00008447        0.00001351        0.00003941        0.00001217
     217         -0.660939        1.000000        0.00379313        0.00042661        0.00207086        0.00036437
     218         -0.660422        1.000000        0.00463414        0.00057538        0.00242705        0.00052617
     219         -0.660074        1.000000        0.00919582        0.00137492        0.00497768        0.00086528
     220         -0.659837        1.000000        0.01031388        0.00150738        0.00559325        0.00102876
     221         -0.659797        1.000000        0.00111427        0.00028127        0.00052138        0.00038806
     222         -0.659753        1.000000        0.00115309        0.00025435        0.00051744        0.00055675
     223         -0.659104        1.000000        0.00057974        0.00024571        0.00028077        0.00010647
     224         -0.659087        1.000000        0.00058479        0.00022754        0.00028340        0.00011495
     225         -0.657528        1.000000        0.00220716        0.00058967        0.00090631        0.00149456
     226         -0.657513        1.000000        0.00233185        0.00065290        0.00096214        0.00147994
     227         -0.657374        1.000000        0.00132039        0.00020834        0.00065105        0.00015588
     228         -0.657327        1.000000        0.00210825        0.00024129        0.00108077        0.00024415
     229         -0.657207        1.000000        0.00504195        0.00051095        0.00269576        0.00046709
     230         -0.656867        1.000000        0.00268532        0.00048870        0.00129515        0.00065532
     231         -0.656796        1.000000        0.00484440        0.00055482        0.00241594        0.00074049
     232         -0.656663        1.000000        0.00193715        0.00054458        0.00084614        0.00098698
     233         -0.656622        1.000000        0.00687169        0.00042785        0.00370027        0.00057532
     234         -0.656508        1.000000        0.00597663        0.00038481        0.00314724        0.00054191
     235         -0.655948        1.000000        0.00449087        0.00093775        0.00205173        0.00052967
     236         -0.655917        1.000000        0.00808956        0.00124353        0.00409576        0.00086650
     237         -0.654956        1.000000        0.00367418        0.00079268        0.00163542        0.00132574
     238         -0.654911        1.000000        0.00351930        0.00077984        0.00152283        0.00142209
     239         -0.654662        1.000000        0.00980103        0.00131589        0.00434830        0.00109268
     240         -0.654641        1.000000        0.00178470        0.00057306        0.00063960        0.00148633
     241         -0.654628        1.000000        0.00388885        0.00080221        0.00161361        0.00148671
     242         -0.654241        1.000000        0.00984206        0.00139089        0.00446190        0.00131844
     243         -0.651225        1.000000        0.02515280        0.00529821        0.01149006        0.00320909
     244         -0.650897        1.000000        0.02163126        0.00508235        0.00955594        0.00318800
     245         -0.631299        1.000000        0.00308778        0.00030545        0.00127632        0.00020421
     246         -0.631272        1.000000        0.00338203        0.00035760        0.00135117        0.00019179
     247         -0.630702        1.000000        0.00466234        0.00051365        0.00197189        0.00033134
     248         -0.630659        1.000000        0.00591666        0.00051679        0.00257843        0.00045686
     249         -0.629791        1.000000        0.00431630        0.00053347        0.00154674        0.00074493
     250         -0.629670        1.000000        0.00336712        0.00042272        0.00112901        0.00069420
     251         -0.624360        1.000000        0.00882489        0.00089657        0.00371524        0.00063162
     252         -0.624095        1.000000        0.00757066        0.00090363        0.00309015        0.00051956
     253         -0.622675        1.000000        0.00469290        0.00066074        0.00164473        0.00066509
     254         -0.622495        1.000000        0.00194538        0.00032339        0.00059392        0.00051789
     255         -0.622022        1.000000        0.00214150        0.00093449        0.00087581        0.00042687
     256         -0.621871        1.000000        0.00146398        0.00059450        0.00058124        0.00039167
     257         -0.621747        1.000000        0.00651291        0.00085143        0.00200446        0.00148124
     258         -0.621364        1.000000        0.01024878        0.00131230        0.00319890        0.00169833