# Projected DOS for atomic kind C1 at iteration step i = 36, E(Fermi) =    -0.147424 a.u. -0.147424 a.u.
#     MO Eigenva.u. -0.147424 a.u. [a.u.]      Occupation                 s                py                pz                px               d-2               d-1                d0               d+1               d+2
       1         -0.850214        1.000000        0.00193938        0.00003544        0.00000095        0.00007512        0.00000012        0.00000084        0.00036306        0.00000159        0.00000016
       2         -0.847834        1.000000        0.00061128        0.00010162        0.00000081        0.00016953        0.00000157        0.00000061        0.00011698        0.00000103        0.00000692
       3         -0.847830        1.000000        0.00032552        0.00003934        0.00000047        0.00013190        0.00000364        0.00000019        0.00006299        0.00000075        0.00000684
       4         -0.847175        1.000000        0.00189341        0.00025526        0.00000309        0.00076374        0.00000484        0.00000147        0.00037424        0.00000430        0.00000164
       5         -0.847060        1.000000        0.00352426        0.00032462        0.00000066        0.00012425        0.00000945        0.00000287        0.00061099        0.00000266        0.00001015
       6         -0.845697        1.000000        0.01168160        0.00030351        0.00000371        0.00028584        0.00000505        0.00000537        0.00204948        0.00000934        0.00001369
       7         -0.844728        1.000000        0.01911777        0.00013532        0.00000669        0.00024615        0.00000347        0.00000454        0.00342768        0.00001242        0.00000866
       8         -0.841062        1.000000        0.00316403        0.00021668        0.00000106        0.00019449        0.00001490        0.00000158        0.00052991        0.00000320        0.00002299
       9         -0.841022        1.000000        0.00153503        0.00035365        0.00000060        0.00020240        0.00001415        0.00000149        0.00025400        0.00000183        0.00002620
      10         -0.840703        1.000000        0.00217252        0.00043761        0.00000314        0.00082431        0.00002992        0.00000198        0.00040295        0.00000517        0.00005827
      11         -0.840396        1.000000        0.00627353        0.00070775        0.00000679        0.00175276        0.00004550        0.00000518        0.00110737        0.00001157        0.00005315
      12         -0.840056        1.000000        0.00962581        0.00037237        0.00000215        0.00017778        0.00000292        0.00000212        0.00165988        0.00000538        0.00000224
      13         -0.839360        1.000000        0.02005528        0.00043717        0.00000180        0.00020392        0.00000382        0.00000899        0.00324088        0.00001204        0.00000307
      14         -0.837740        1.000000        0.00273176        0.00052044        0.00000307        0.00086556        0.00003154        0.00000251        0.00047143        0.00000578        0.00009202
      15         -0.837698        1.000000        0.00205185        0.00052549        0.00000266        0.00069615        0.00003868        0.00000192        0.00036063        0.00000472        0.00011487
      16         -0.836886        1.000000        0.00603106        0.00097771        0.00000935        0.00286662        0.00009933        0.00000613        0.00106090        0.00001553        0.00003407
      17         -0.836081        1.000000        0.03578062        0.00015831        0.00000305        0.00024984        0.00001777        0.00000627        0.00583606        0.00001503        0.00000955
      18         -0.835561        1.000000        0.02627924        0.00192381        0.00000456        0.00070751        0.00005356        0.00001274        0.00415744        0.00002067        0.00007541
      19         -0.835553        1.000000        0.02381423        0.00238153        0.00000520        0.00085617        0.00004853        0.00000754        0.00388835        0.00001748        0.00008355
      20         -0.828742        1.000000        0.00021912        0.00013975        0.00000031        0.00011357        0.00001983        0.00000038        0.00003348        0.00000067        0.00003986
      21         -0.828713        1.000000        0.00048688        0.00012573        0.00000033        0.00012527        0.00001713        0.00000059        0.00007160        0.00000092        0.00003788
      22         -0.828012        1.000000        0.00082640        0.00087089        0.00000401        0.00172570        0.00006112        0.00000183        0.00011656        0.00000420        0.00010990
      23         -0.827968        1.000000        0.00059962        0.00076012        0.00000212        0.00129855        0.00003410        0.00000164        0.00008804        0.00000237        0.00007538
      24         -0.827917        1.000000        0.01064124        0.00025272        0.00000142        0.00024970        0.00004490        0.00000472        0.00157548        0.00001046        0.00003682
      25         -0.827639        1.000000        0.00551953        0.00107762        0.00000273        0.00091278        0.00013775        0.00000637        0.00079961        0.00000776        0.00019862
      26         -0.826772        1.000000        0.00200439        0.00170394        0.00000711        0.00367529        0.00014320        0.00000338        0.00028297        0.00000751        0.00025416
      27         -0.826628        1.000000        0.00276895        0.00197111        0.00001159        0.00472855        0.00019153        0.00000355        0.00037964        0.00000856        0.00022834
      28         -0.826507        1.000000        0.01938243        0.00185871        0.00000504        0.00129985        0.00014765        0.00001161        0.00290235        0.00002156        0.00016659
      29         -0.826349        1.000000        0.02124434        0.00122014        0.00000707        0.00145529        0.00019207        0.00001309        0.00309329        0.00002800        0.00017418
      30         -0.825840        1.000000        0.02545459        0.00257679        0.00000315        0.00107732        0.00006285        0.00000881        0.00369639        0.00001676        0.00008836
      31         -0.825766        1.000000        0.03418517        0.00268473        0.00000236        0.00105001        0.00006091        0.00000879        0.00504979        0.00002035        0.00005885
      32         -0.821118        1.000000        0.00539069        0.00154688        0.00000454        0.00167947        0.00013433        0.00000589        0.00075152        0.00001207        0.00039353
      33         -0.820972        1.000000        0.00446334        0.00173359        0.00000441        0.00151761        0.00015577        0.00000546        0.00062586        0.00001075        0.00045812
      34         -0.820804        1.000000        0.00015295        0.00214122        0.00001552        0.00639010        0.00012271        0.00000211        0.00001431        0.00000616        0.00004163
      35         -0.820174        1.000000        0.02770794        0.00016241        0.00000216        0.00032133        0.00045757        0.00001125        0.00391408        0.00002654        0.00015413
      36         -0.819760        1.000000        0.02668725        0.00414883        0.00000315        0.00143774        0.00021479        0.00001533        0.00349232        0.00002461        0.00011461
      37         -0.819534        1.000000        0.02225970        0.00522301        0.00000163        0.00179994        0.00015979        0.00001185        0.00298363        0.00001943        0.00010631
      38         -0.811807        1.000000        0.00193656        0.00073125        0.00000065        0.00035398        0.00008445        0.00000216        0.00023028        0.00000336        0.00010153
      39         -0.811772        1.000000        0.00167913        0.00070470        0.00000043        0.00028302        0.00007880        0.00000197        0.00019898        0.00000301        0.00009890
      40         -0.811305        1.000000        0.00011046        0.00160807        0.00001420        0.00470070        0.00019433        0.00000094        0.00001037        0.00000258        0.00030226
      41         -0.811106        1.000000        0.00388746        0.00151847        0.00000617        0.00227068        0.00027382        0.00000486        0.00050201        0.00001136        0.00041767
      42         -0.811074        1.000000        0.00499701        0.00095524        0.00000262        0.00143967        0.00004910        0.00000101        0.00060703        0.00000122        0.00012841
      43         -0.810752        1.000000        0.01825609        0.00103705        0.00000135        0.00053032        0.00017084        0.00001142        0.00217370        0.00002136        0.00010544
      44         -0.808643        1.000000        0.00205531        0.00098673        0.00000149        0.00064297        0.00012571        0.00000286        0.00023763        0.00000504        0.00027729
      45         -0.808571        1.000000        0.00312552        0.00098668        0.00000134        0.00068542        0.00011869        0.00000384        0.00035152        0.00000608        0.00026176
      46         -0.807929        1.000000        0.00062811        0.00229807        0.00001741        0.00651648        0.00035417        0.00000301        0.00007835        0.00000884        0.00038601
      47         -0.807857        1.000000        0.00322915        0.00220381        0.00001352        0.00455177        0.00033555        0.00000393        0.00033233        0.00000719        0.00062299
      48         -0.807719        1.000000        0.00262413        0.00191228        0.00000711        0.00298762        0.00026815        0.00000301        0.00028648        0.00000602        0.00053981
      49         -0.807675        1.000000        0.00098566        0.00290908        0.00002540        0.00878885        0.00042071        0.00000429        0.00012406        0.00001071        0.00036458
      50         -0.807333        1.000000        0.02271624        0.00109999        0.00000038        0.00052659        0.00043490        0.00000917        0.00275779        0.00002114        0.00020454
      51         -0.807275        1.000000        0.02390356        0.00390525        0.00000390        0.00202765        0.00018218        0.00001477        0.00280117        0.00003254        0.00041670
      52         -0.807175        1.000000        0.01689950        0.00418782        0.00000594        0.00227561        0.00021871        0.00001209        0.00200342        0.00002661        0.00056189
      53         -0.806689        1.000000        0.03256030        0.00061353        0.00000185        0.00030647        0.00066592        0.00001626        0.00375936        0.00003385        0.00025845
      54         -0.806025        1.000000        0.02400300        0.00652033        0.00000401        0.00237413        0.00054673        0.00001668        0.00265411        0.00002625        0.00034668
      55         -0.805808        1.000000        0.02082013        0.00710430        0.00000424        0.00261953        0.00050056        0.00001523        0.00231871        0.00002424        0.00033720
      56         -0.798131        1.000000        0.00486442        0.00318946        0.00001171        0.00442391        0.00028187        0.00000712        0.00049449        0.00001299        0.00073074
      57         -0.798026        1.000000        0.00435340        0.00297928        0.00001928        0.00666032        0.00076296        0.00000646        0.00048591        0.00001665        0.00041155
      58         -0.797875        1.000000        0.00642772        0.00312622        0.00000482        0.00228413        0.00036197        0.00000924        0.00063912        0.00001644        0.00100085
      59         -0.797469        1.000000        0.01432823        0.00181072        0.00000333        0.00109022        0.00062198        0.00000507        0.00150205        0.00001083        0.00024659
      60         -0.797370        1.000000        0.02596383        0.00309134        0.00000662        0.00116328        0.00054816        0.00001585        0.00255720        0.00003002        0.00019570
      61         -0.797175        1.000000        0.01744905        0.00628409        0.00000154        0.00247718        0.00039834        0.00001262        0.00168765        0.00002000        0.00013602
      62         -0.789831        1.000000        0.00044684        0.00026211        0.00000028        0.00015967        0.00005332        0.00000081        0.00003837        0.00000128        0.00010028
      63         -0.789771        1.000000        0.00036547        0.00029031        0.00000029        0.00015304        0.00005139        0.00000080        0.00003192        0.00000113        0.00010388
      64         -0.789084        1.000000        0.00584877        0.00104847        0.00000276        0.00051902        0.00007239        0.00000322        0.00051475        0.00000776        0.00004938
      65         -0.788956        1.000000        0.00185150        0.00146931        0.00001241        0.00421383        0.00044596        0.00000282        0.00016555        0.00000458        0.00050057
      66         -0.788841        1.000000        0.00082664        0.00115056        0.00000912        0.00263671        0.00032168        0.00000156        0.00007875        0.00000364        0.00056824
      67         -0.788552        1.000000        0.00870381        0.00132585        0.00000188        0.00070747        0.00013808        0.00000775        0.00071292        0.00001053        0.00007216
      68         -0.787836        1.000000        0.00196391        0.00371583        0.00003096        0.00974881        0.00095962        0.00000515        0.00018597        0.00001238        0.00155370
      69         -0.787822        1.000000        0.00154838        0.00361127        0.00003203        0.00936767        0.00101443        0.00000485        0.00014726        0.00001217        0.00175324
      70         -0.787460        1.000000        0.00738232        0.00364265        0.00000141        0.00149873        0.00059885        0.00000956        0.00059988        0.00001513        0.00047855
      71         -0.787359        1.000000        0.00607333        0.00371479        0.00000324        0.00141518        0.00055710        0.00000894        0.00050230        0.00001306        0.00049122
      72         -0.786949        1.000000        0.02959391        0.00384420        0.00000796        0.00137602        0.00032344        0.00001230        0.00261197        0.00003212        0.00014163
      73         -0.786880        1.000000        0.03082683        0.00392844        0.00000505        0.00137429        0.00026369        0.00001492        0.00267896        0.00003307        0.00012794
      74         -0.782569        1.000000        0.00748407        0.00212923        0.00000204        0.00144763        0.00028491        0.00000796        0.00055836        0.00001406        0.00051971
      75         -0.782263        1.000000        0.00275931        0.00259414        0.00000281        0.00130379        0.00035104        0.00000595        0.00021408        0.00000832        0.00074365
      76         -0.782130        1.000000        0.00352656        0.00231474        0.00001572        0.00436982        0.00077856        0.00000507        0.00026417        0.00001087        0.00114520
      77         -0.781909        1.000000        0.00178112        0.00239027        0.00001079        0.00373703        0.00056075        0.00000386        0.00013406        0.00000623        0.00132692
      78         -0.781892        1.000000        0.00025277        0.00225560        0.00002435        0.00664693        0.00035494        0.00000129        0.00001991        0.00000375        0.00034665
      79         -0.781641        1.000000        0.01725854        0.00142136        0.00000202        0.00081957        0.00101349        0.00000857        0.00145989        0.00002065        0.00058084
      80         -0.781582        1.000000        0.00462077        0.00371192        0.00003515        0.01060494        0.00135166        0.00000573        0.00038726        0.00001342        0.00061580
      81         -0.781114        1.000000        0.01744153        0.00517974        0.00000694        0.00244892        0.00033185        0.00001421        0.00135516        0.00003032        0.00086879
      82         -0.781080        1.000000        0.01745001        0.00243850        0.00000865        0.00181782        0.00064135        0.00001395        0.00135448        0.00002111        0.00056524
      83         -0.781002        1.000000        0.02139849        0.00417998        0.00001299        0.00213902        0.00053584        0.00001196        0.00170432        0.00002899        0.00057469
      84         -0.780088        1.000000        0.02295932        0.01008794        0.00001254        0.00384122        0.00117916        0.00002121        0.00169068        0.00003565        0.00054938
      85         -0.780057        1.000000        0.02169909        0.00989852        0.00000751        0.00394153        0.00122296        0.00001927        0.00159638        0.00003252        0.00048618
      86         -0.768998        1.000000        0.00180291        0.00370924        0.00004188        0.00884084        0.00034330        0.00000257        0.00010941        0.00000416        0.00052513
      87         -0.768748        1.000000        0.00281036        0.00235784        0.00001935        0.00422870        0.00039526        0.00000517        0.00017029        0.00000761        0.00117381
      88         -0.768723        1.000000        0.00493732        0.00409306        0.00000468        0.00269983        0.00061638        0.00000999        0.00030881        0.00001490        0.00174753
      89         -0.768666        1.000000        0.01839412        0.00394050        0.00000140        0.00214693        0.00172682        0.00001203        0.00119762        0.00002867        0.00061564
      90         -0.768504        1.000000        0.01220684        0.00559659        0.00001323        0.00239539        0.00061846        0.00001136        0.00072282        0.00002204        0.00024456
      91         -0.768471        1.000000        0.01811085        0.00362775        0.00000456        0.00175232        0.00138113        0.00001322        0.00112423        0.00002546        0.00045875
      92         -0.763481        1.000000        0.00163077        0.00092151        0.00000010        0.00031661        0.00021086        0.00000250        0.00008415        0.00000414        0.00015059
      93         -0.763432        1.000000        0.00094957        0.00086150        0.00000050        0.00030157        0.00014042        0.00000202        0.00005114        0.00000267        0.00014717
      94         -0.762879        1.000000        0.00274039        0.00238837        0.00001921        0.00545360        0.00079337        0.00000335        0.00015816        0.00000566        0.00104032
      95         -0.762678        1.000000        0.00204332        0.00132422        0.00001697        0.00317821        0.00021896        0.00000107        0.00011322        0.00000202        0.00063598
      96         -0.762631        1.000000        0.01042329        0.00125348        0.00001392        0.00091239        0.00014062        0.00000637        0.00055884        0.00001510        0.00009201
      97         -0.762463        1.000000        0.00794694        0.00291469        0.00000531        0.00289057        0.00076557        0.00000709        0.00044301        0.00001325        0.00093568
      98         -0.760355        1.000000        0.00191609        0.00133879        0.00000109        0.00075228        0.00030477        0.00000386        0.00009549        0.00000577        0.00051232
      99         -0.760215        1.000000        0.00144048        0.00159203        0.00000098        0.00068885        0.00029836        0.00000405        0.00007506        0.00000489        0.00057583
     100         -0.759368        1.000000        0.00094319        0.00361540        0.00003912        0.00953259        0.00120228        0.00000315        0.00005432        0.00000523        0.00210216
     101         -0.759315        1.000000        0.00148437        0.00303967        0.00002698        0.00691770        0.00110225        0.00000387        0.00008016        0.00000519        0.00243052
     102         -0.759236        1.000000        0.00361049        0.00459208        0.00005254        0.01182892        0.00142634        0.00000339        0.00018660        0.00000553        0.00126778
     103         -0.759174        1.000000        0.00613214        0.00296020        0.00004108        0.00630937        0.00059774        0.00000266        0.00034312        0.00000656        0.00149317
     104         -0.758896        1.000000        0.02315169        0.00232479        0.00001454        0.00089940        0.00111590        0.00001037        0.00127610        0.00002689        0.00039861
     105         -0.758781        1.000000        0.01541238        0.00258956        0.00000470        0.00261701        0.00157195        0.00000841        0.00085785        0.00001993        0.00107870
     106         -0.758683        1.000000        0.02059789        0.00498334        0.00002960        0.00282568        0.00001702        0.00001292        0.00103707        0.00003236        0.00003421
     107         -0.758558        1.000000        0.01958188        0.00581050        0.00000956        0.00215970        0.00000767        0.00001143        0.00100780        0.00002727        0.00001457
     108         -0.757996        1.000000        0.01610799        0.00842731        0.00000179        0.00288365        0.00186817        0.00002230        0.00074383        0.00004016        0.00106039
     109         -0.757391        1.000000        0.01028234        0.00927338        0.00000713        0.00311805        0.00138107        0.00001966        0.00049674        0.00002776        0.00102428
     110         -0.750666        1.000000        0.00814781        0.00346416        0.00001158        0.00301016        0.00051985        0.00000969        0.00031446        0.00001757        0.00069796
     111         -0.750302        1.000000        0.00062470        0.00316434        0.00005638        0.00908746        0.00028711        0.00000038        0.00002837        0.00000064        0.00031839
     112         -0.750147        1.000000        0.00396706        0.00234212        0.00000980        0.00265697        0.00102948        0.00000651        0.00016751        0.00001298        0.00152749
     113         -0.750099        1.000000        0.00119237        0.00206953        0.00001419        0.00368453        0.00074124        0.00000346        0.00005122        0.00000443        0.00202929
     114         -0.749903        1.000000        0.00545031        0.00583020        0.00000414        0.00253824        0.00065805        0.00001194        0.00022108        0.00001697        0.00123913
     115         -0.749762        1.000000        0.00166969        0.00446377        0.00007763        0.01173330        0.00053870        0.00000382        0.00006285        0.00000724        0.00049896
     116         -0.749508        1.000000        0.01458696        0.00085901        0.00000067        0.00121539        0.00229284        0.00000564        0.00071654        0.00001549        0.00081759
     117         -0.748927        1.000000        0.01601113        0.00747414        0.00000372        0.00293648        0.00052832        0.00001752        0.00065482        0.00003198        0.00120776
     118         -0.748899        1.000000        0.01706669        0.00132509        0.00000293        0.00194326        0.00297483        0.00001038        0.00077127        0.00002020        0.00154728
     119         -0.748855        1.000000        0.01166724        0.00433874        0.00001411        0.00250908        0.00075800        0.00001209        0.00048220        0.00002211        0.00145371
     120         -0.748473        1.000000        0.02139012        0.01118496        0.00002139        0.00509521        0.00181913        0.00002082        0.00085202        0.00004292        0.00072069
     121         -0.748151        1.000000        0.01546478        0.01039041        0.00002952        0.00463512        0.00160019        0.00001870        0.00061265        0.00003465        0.00062406
     122         -0.734765        1.000000        0.00029796        0.00410720        0.00007795        0.01209178        0.00078497        0.00000032        0.00000866        0.00000043        0.00026616
     123         -0.734107        1.000000        0.00394211        0.00365063        0.00000713        0.00331616        0.00079842        0.00000878        0.00011185        0.00001057        0.00232709
     124         -0.734021        1.000000        0.01331595        0.00545464        0.00001409        0.00242652        0.00102244        0.00001396        0.00035312        0.00003539        0.00041129
     125         -0.733782        1.000000        0.00087682        0.00079542        0.00001358        0.00209269        0.00105952        0.00000262        0.00002749        0.00000424        0.00218499
     126         -0.733443        1.000000        0.01067321        0.00998371        0.00001181        0.00355317        0.00092817        0.00001923        0.00031197        0.00002930        0.00099084
     127         -0.733206        1.000000        0.01742818        0.00026665        0.00000596        0.00052675        0.00317151        0.00000751        0.00057609        0.00001689        0.00110054
     128         -0.732582        1.000000        0.00093095        0.00074302        0.00000047        0.00031014        0.00014837        0.00000191        0.00002539        0.00000292        0.00021849
     129         -0.732570        1.000000        0.00054742        0.00063922        0.00000031        0.00024163        0.00011327        0.00000155        0.00001512        0.00000178        0.00019911
     130         -0.731911        1.000000        0.00090933        0.00081849        0.00002200        0.00215502        0.00028382        0.00000172        0.00002279        0.00000477        0.00072403
     131         -0.731699        1.000000        0.00029255        0.00193341        0.00003999        0.00549700        0.00038593        0.00000195        0.00000603        0.00000403        0.00061555
     132         -0.731543        1.000000        0.00816210        0.00147777        0.00000180        0.00113914        0.00057783        0.00000662        0.00020054        0.00001090        0.00051052
     133         -0.731245        1.000000        0.00311298        0.00187459        0.00000254        0.00144183        0.00047403        0.00000279        0.00008834        0.00000450        0.00071685
     134         -0.730306        1.000000        0.00074483        0.00346349        0.00008264        0.01104970        0.00143826        0.00000279        0.00001716        0.00000228        0.00286412
     135         -0.730296        1.000000        0.00029336        0.00483041        0.00008880        0.01276806        0.00188571        0.00000348        0.00000706        0.00000492        0.00294254
     136         -0.730200        1.000000        0.00666136        0.00411175        0.00000796        0.00231249        0.00120748        0.00001068        0.00015494        0.00001909        0.00086332
     137         -0.730021        1.000000        0.00390046        0.00474643        0.00000868        0.00187372        0.00079240        0.00000967        0.00009980        0.00001260        0.00078665
     138         -0.729821        1.000000        0.02489104        0.00488199        0.00001142        0.00167819        0.00099448        0.00001196        0.00068165        0.00003169        0.00048996
     139         -0.729691        1.000000        0.02233892        0.00623975        0.00000551        0.00266674        0.00128965        0.00001020        0.00063376        0.00002832        0.00092590
     140         -0.725346        1.000000        0.00132133        0.00445892        0.00007740        0.01097313        0.00104654        0.00000347        0.00002875        0.00000452        0.00106364
     141         -0.725315        1.000000        0.00031357        0.00348055        0.00006814        0.01003621        0.00101221        0.00000108        0.00000756        0.00000142        0.00119790
     142         -0.725207        1.000000        0.00301881        0.00335041        0.00002458        0.00400047        0.00096615        0.00000803        0.00006358        0.00001257        0.00117944
     143         -0.725117        1.000000        0.00322669        0.00472541        0.00000348        0.00190623        0.00090643        0.00001109        0.00007549        0.00001194        0.00175209
     144         -0.724719        1.000000        0.00480318        0.00495656        0.00002634        0.00682593        0.00144052        0.00000689        0.00011018        0.00000732        0.00345817