
The number of threads in each node for OpenMP parallelization is 1.


*******************************************************
*******************************************************
 Welcome to OpenMX   Ver. 3.9.2                           
 Copyright (C), 2002-2019, T. Ozaki                    
 OpenMX comes with ABSOLUTELY NO WARRANTY.             
 This is free software, and you are welcome to         
 redistribute it under the constitution of the GNU-GPL.
*******************************************************
*******************************************************



<Input_std>  Your input file was normally read.
<Input_std>  The system includes 2 species and 4 atoms.

*******************************************************
                     PAO and VPS                       
*******************************************************

<SetPara_DFT>  PAOs of species H were normally found.
<SetPara_DFT>  PAOs of species C were normally found.
<SetPara_DFT>  VPSs of species H were normally found.
               H_PBE19.vps is j-dependent.
               In case of scf.SpinOrbit.Coupling=off,
               j-dependent pseudo potentials are averaged by j-degeneracy,
               which corresponds to a scalar relativistic treatment.
<SetPara_DFT>  VPSs of species C were normally found.
               C_PBE19.vps is j-dependent.
               In case of scf.SpinOrbit.Coupling=off,
               j-dependent pseudo potentials are averaged by j-degeneracy,
               which corresponds to a scalar relativistic treatment.

*******************************************************
     Fourier transform of PAO and projectors of VNL    
*******************************************************

<FT_PAO>          Fourier transform of pseudo atomic orbitals
<FT_NLP>          Fourier transform of non-local projectors
<FT_ProExpn_VNA>  Fourier transform of VNA separable projectors
<FT_VNA>          Fourier transform of VNA potentials
<FT_ProductPAO>   Fourier transform of product of PAOs

*******************************************************
  Allocation of atoms to proccesors at MD_iter=    1     
*******************************************************

 proc =   0  # of atoms=   1  estimated weight=         1.00000
 proc =   1  # of atoms=   1  estimated weight=         1.00000
 proc =   2  # of atoms=   1  estimated weight=         1.00000
 proc =   3  # of atoms=   1  estimated weight=         1.00000
 proc =   4  # of atoms=   0  estimated weight=         0.00000
 proc =   5  # of atoms=   0  estimated weight=         0.00000
 proc =   6  # of atoms=   0  estimated weight=         0.00000
 proc =   7  # of atoms=   0  estimated weight=         0.00000
 proc =   8  # of atoms=   0  estimated weight=         0.00000
 proc =   9  # of atoms=   0  estimated weight=         0.00000
 proc =  10  # of atoms=   0  estimated weight=         0.00000
 proc =  11  # of atoms=   0  estimated weight=         0.00000
 proc =  12  # of atoms=   0  estimated weight=         0.00000
 proc =  13  # of atoms=   0  estimated weight=         0.00000
 proc =  14  # of atoms=   0  estimated weight=         0.00000
 proc =  15  # of atoms=   0  estimated weight=         0.00000
 proc =  16  # of atoms=   0  estimated weight=         0.00000
 proc =  17  # of atoms=   0  estimated weight=         0.00000
 proc =  18  # of atoms=   0  estimated weight=         0.00000
 proc =  19  # of atoms=   0  estimated weight=         0.00000
 proc =  20  # of atoms=   0  estimated weight=         0.00000
 proc =  21  # of atoms=   0  estimated weight=         0.00000
 proc =  22  # of atoms=   0  estimated weight=         0.00000
 proc =  23  # of atoms=   0  estimated weight=         0.00000




*******************************************************
        Analysis of neighbors and setting of grids        
*******************************************************

TFNAN=      12   Average FNAN=   3.00000
TSNAN=       0   Average SNAN=   0.00000
<truncation> CpyCell= 1 ct_AN=   1 FNAN SNAN   3   0
<truncation> CpyCell= 1 ct_AN=   2 FNAN SNAN   3   0
<truncation> CpyCell= 1 ct_AN=   3 FNAN SNAN   3   0
<truncation> CpyCell= 1 ct_AN=   4 FNAN SNAN   3   0
TFNAN=      12   Average FNAN=   3.00000
TSNAN=       0   Average SNAN=   0.00000
<truncation> CpyCell= 2 ct_AN=   1 FNAN SNAN   3   0
<truncation> CpyCell= 2 ct_AN=   2 FNAN SNAN   3   0
<truncation> CpyCell= 2 ct_AN=   3 FNAN SNAN   3   0
<truncation> CpyCell= 2 ct_AN=   4 FNAN SNAN   3   0
TFNAN=      12   Average FNAN=   3.00000
TSNAN=       0   Average SNAN=   0.00000
<truncation> CpyCell= 2 ct_AN=   1 FNAN SNAN   3   0
<truncation> CpyCell= 2 ct_AN=   2 FNAN SNAN   3   0
<truncation> CpyCell= 2 ct_AN=   3 FNAN SNAN   3   0
<truncation> CpyCell= 2 ct_AN=   4 FNAN SNAN   3   0
<Check_System> The system is molecule.
lattice vectors (bohr)
A  = 40.000000000000,  0.000000000000,  0.000000000000
B  =  0.000000000000, 30.000000000000,  0.000000000000
C  =  0.000000000000,  0.000000000000, 30.000000000000
reciprocal lattice vectors (bohr^-1)
RA =  0.157079632679,  0.000000000000,  0.000000000000
RB =  0.000000000000,  0.209439510239,  0.000000000000
RC =  0.000000000000,  0.000000000000,  0.209439510239
Grid_Origin -19.900000000000 -14.900000000000 -14.900000000000
Cell_Volume =  36000.000000000000 (Bohr^3)
GridVol     =      0.008000000000 (Bohr^3)
Grid_Origin -19.900000000000 -14.900000000000 -14.900000000000
Cell_Volume =  36000.000000000000 (Bohr^3)
GridVol     =      0.008000000000 (Bohr^3)
<UCell_Box> Info. of cutoff energy and num. of grids
lattice vectors (bohr)
A  = 40.000000000000,  0.000000000000,  0.000000000000
B  =  0.000000000000, 30.000000000000,  0.000000000000
C  =  0.000000000000,  0.000000000000, 30.000000000000
reciprocal lattice vectors (bohr^-1)
RA =  0.157079632679,  0.000000000000,  0.000000000000
RB =  0.000000000000,  0.209439510239,  0.000000000000
RC =  0.000000000000,  0.000000000000,  0.209439510239
Required cutoff energy (Ryd) for 3D-grids = 250.0000
    Used cutoff energy (Ryd) for 3D-grids = 246.7401, 246.7401, 246.7401
Num. of grids of a-, b-, and c-axes = 200, 150, 150
Grid_Origin -19.900000000000 -14.900000000000 -14.900000000000
Cell_Volume =  36000.000000000000 (Bohr^3)
GridVol     =      0.008000000000 (Bohr^3)
Cell vectors (bohr) of the grid cell (gtv)
  gtv_a =  0.200000000000,  0.000000000000,  0.000000000000
  gtv_b =  0.000000000000,  0.200000000000,  0.000000000000
  gtv_c =  0.000000000000,  0.000000000000,  0.200000000000
  |gtv_a| =  0.200000000000
  |gtv_b| =  0.200000000000
  |gtv_c| =  0.200000000000
Num. of grids overlapping with atom    1 = 113120
Num. of grids overlapping with atom    2 = 113120
Num. of grids overlapping with atom    3 = 113192
Num. of grids overlapping with atom    4 = 113192

*******************************************************
             SCF calculation at MD = 1                
*******************************************************

<MD= 1>  Calculation of the overlap matrix
<MD= 1>  Calculation of the nonlocal matrix
<MD= 1>  Calculation of the VNA projector matrix

******************* MD= 1  SCF= 1 *******************
<Cluster>  Solving the eigenvalue problem...
    1    C  MulP   1.9422  1.9422 sum   3.8844
    2    C  MulP   1.9422  1.9422 sum   3.8844
    3    H  MulP   0.5578  0.5578 sum   1.1156
    4    H  MulP   0.5578  0.5578 sum   1.1156
 Sum of MulP: up   =     5.00000 down          =     5.00000
              total=    10.00000 ideal(neutral)=    10.00000
<DFT>  Total Spin Moment (muB) =  0.000000000000
<DFT>  Mixing_weight= 0.100000000000
<DFT>  Uele   =   -3.955694175647  dUele     =   1.000000000000
<DFT>  NormRD =    1.000000000000  Criterion =   0.000000010000

******************* MD= 1  SCF= 2 *******************
<Poisson>  Poisson's equation using FFT...
<Set_Hamiltonian>  Hamiltonian matrix for VNA+dVH+Vxc...
<Cluster>  Solving the eigenvalue problem...
    1    C  MulP   1.9614  1.9614 sum   3.9227
    2    C  MulP   1.9614  1.9614 sum   3.9227
    3    H  MulP   0.5386  0.5386 sum   1.0773
    4    H  MulP   0.5386  0.5386 sum   1.0773
 Sum of MulP: up   =     5.00000 down          =     5.00000
              total=    10.00000 ideal(neutral)=    10.00000
<DFT>  Total Spin Moment (muB) =  0.000000000000
<DFT>  Mixing_weight= 0.109650198631
<DFT>  Uele   =   -4.036099936263  dUele     =   0.080405760616
<DFT>  NormRD =    0.296663020976  Criterion =   0.000000010000

******************* MD= 1  SCF= 3 *******************
<Poisson>  Poisson's equation using FFT...
<Set_Hamiltonian>  Hamiltonian matrix for VNA+dVH+Vxc...
<Cluster>  Solving the eigenvalue problem...
    1    C  MulP   2.0915  2.0915 sum   4.1830
    2    C  MulP   2.0915  2.0915 sum   4.1830
    3    H  MulP   0.4085  0.4085 sum   0.8170
    4    H  MulP   0.4085  0.4085 sum   0.8170
 Sum of MulP: up   =     5.00000 down          =     5.00000
              total=    10.00000 ideal(neutral)=    10.00000
<DFT>  Total Spin Moment (muB) =  0.000000000000
<DFT>  Mixing_weight= 0.046794818680
<DFT>  Uele   =   -4.580463940716  dUele     =   0.544364004453
<DFT>  NormRD =    0.343823659545  Criterion =   0.000000010000

******************* MD= 1  SCF= 4 *******************
<Poisson>  Poisson's equation using FFT...
<Set_Hamiltonian>  Hamiltonian matrix for VNA+dVH+Vxc...
<Cluster>  Solving the eigenvalue problem...
    1    C  MulP   2.1052  2.1052 sum   4.2104
    2    C  MulP   2.1052  2.1052 sum   4.2104
    3    H  MulP   0.3948  0.3948 sum   0.7896
    4    H  MulP   0.3948  0.3948 sum   0.7896
 Sum of MulP: up   =     5.00000 down          =     5.00000
              total=    10.00000 ideal(neutral)=    10.00000
<DFT>  Total Spin Moment (muB) =  0.000000000000
<DFT>  Mixing_weight= 0.022334727054
<DFT>  Uele   =   -4.678909539035  dUele     =   0.098445598319
<DFT>  NormRD =    0.359811030862  Criterion =   0.000000010000

******************* MD= 1  SCF= 5 *******************
<Poisson>  Poisson's equation using FFT...
<Set_Hamiltonian>  Hamiltonian matrix for VNA+dVH+Vxc...
<Cluster>  Solving the eigenvalue problem...
    1    C  MulP   2.1013  2.1013 sum   4.2026
    2    C  MulP   2.1013  2.1013 sum   4.2026
    3    H  MulP   0.3987  0.3987 sum   0.7974
    4    H  MulP   0.3987  0.3987 sum   0.7974
 Sum of MulP: up   =     5.00000 down          =     5.00000
              total=    10.00000 ideal(neutral)=    10.00000
<DFT>  Total Spin Moment (muB) =  0.000000000000
<DFT>  Mixing_weight= 0.022334727054
<DFT>  Uele   =   -4.651921992342  dUele     =   0.026987546692
<DFT>  NormRD =    0.342621033478  Criterion =   0.000000010000

******************* MD= 1  SCF= 6 *******************
<Poisson>  Poisson's equation using FFT...
<Set_Hamiltonian>  Hamiltonian matrix for VNA+dVH+Vxc...
<Cluster>  Solving the eigenvalue problem...
    1    C  MulP   2.0976  2.0976 sum   4.1952
    2    C  MulP   2.0976  2.0976 sum   4.1952
    3    H  MulP   0.4024  0.4024 sum   0.8048
    4    H  MulP   0.4024  0.4024 sum   0.8048
 Sum of MulP: up   =     5.00000 down          =     5.00000
              total=    10.00000 ideal(neutral)=    10.00000
<DFT>  Total Spin Moment (muB) =  0.000000000000
<DFT>  Mixing_weight= 0.022334727054
<DFT>  Uele   =   -4.626320171503  dUele     =   0.025601820840
<DFT>  NormRD =    0.326286797920  Criterion =   0.000000010000

******************* MD= 1  SCF= 7 *******************
<Poisson>  Poisson's equation using FFT...
<Set_Hamiltonian>  Hamiltonian matrix for VNA+dVH+Vxc...
<Cluster>  Solving the eigenvalue problem...
    1    C  MulP   2.0242  2.0242 sum   4.0485
    2    C  MulP   2.0242  2.0242 sum   4.0485
    3    H  MulP   0.4758  0.4758 sum   0.9515
    4    H  MulP   0.4758  0.4758 sum   0.9515
 Sum of MulP: up   =     5.00000 down          =     5.00000
              total=    10.00000 ideal(neutral)=    10.00000
<DFT>  Total Spin Moment (muB) =  0.000000000000
<DFT>  Mixing_weight= 0.022334727054
<DFT>  Uele   =   -4.147242111223  dUele     =   0.479078060280
<DFT>  NormRD =    0.017957457662  Criterion =   0.000000010000

******************* MD= 1  SCF= 8 *******************
<Poisson>  Poisson's equation using FFT...
<Set_Hamiltonian>  Hamiltonian matrix for VNA+dVH+Vxc...
<Cluster>  Solving the eigenvalue problem...
    1    C  MulP   2.0268  2.0268 sum   4.0535
    2    C  MulP   2.0268  2.0268 sum   4.0535
    3    H  MulP   0.4732  0.4732 sum   0.9465
    4    H  MulP   0.4732  0.4732 sum   0.9465
 Sum of MulP: up   =     5.00000 down          =     5.00000
              total=    10.00000 ideal(neutral)=    10.00000
<DFT>  Total Spin Moment (muB) =  0.000000000000
<DFT>  Mixing_weight= 0.022334727054
<DFT>  Uele   =   -4.171192974962  dUele     =   0.023950863739
<DFT>  NormRD =    0.008423347277  Criterion =   0.000000010000

******************* MD= 1  SCF= 9 *******************
<Poisson>  Poisson's equation using FFT...
<Set_Hamiltonian>  Hamiltonian matrix for VNA+dVH+Vxc...
<Cluster>  Solving the eigenvalue problem...
    1    C  MulP   2.0241  2.0241 sum   4.0483
    2    C  MulP   2.0241  2.0241 sum   4.0483
    3    H  MulP   0.4759  0.4759 sum   0.9517
    4    H  MulP   0.4759  0.4759 sum   0.9517
 Sum of MulP: up   =     5.00000 down          =     5.00000
              total=    10.00000 ideal(neutral)=    10.00000
<DFT>  Total Spin Moment (muB) =  0.000000000000
<DFT>  Mixing_weight= 0.022334727054
<DFT>  Uele   =   -4.153875721731  dUele     =   0.017317253231
<DFT>  NormRD =    0.001246293538  Criterion =   0.000000010000

******************* MD= 1  SCF=10 *******************
<Poisson>  Poisson's equation using FFT...
<Set_Hamiltonian>  Hamiltonian matrix for VNA+dVH+Vxc...
<Cluster>  Solving the eigenvalue problem...
    1    C  MulP   2.0245  2.0245 sum   4.0490
    2    C  MulP   2.0245  2.0245 sum   4.0490
    3    H  MulP   0.4755  0.4755 sum   0.9510
    4    H  MulP   0.4755  0.4755 sum   0.9510
 Sum of MulP: up   =     5.00000 down          =     5.00000
              total=    10.00000 ideal(neutral)=    10.00000
<DFT>  Total Spin Moment (muB) =  0.000000000000
<DFT>  Mixing_weight= 0.022334727054
<DFT>  Uele   =   -4.156395945774  dUele     =   0.002520224043
<DFT>  NormRD =    0.000141349831  Criterion =   0.000000010000

******************* MD= 1  SCF=11 *******************
<Poisson>  Poisson's equation using FFT...
<Set_Hamiltonian>  Hamiltonian matrix for VNA+dVH+Vxc...
<Cluster>  Solving the eigenvalue problem...
    1    C  MulP   2.0245  2.0245 sum   4.0490
    2    C  MulP   2.0245  2.0245 sum   4.0490
    3    H  MulP   0.4755  0.4755 sum   0.9510
    4    H  MulP   0.4755  0.4755 sum   0.9510
 Sum of MulP: up   =     5.00000 down          =     5.00000
              total=    10.00000 ideal(neutral)=    10.00000
<DFT>  Total Spin Moment (muB) =  0.000000000000
<DFT>  Mixing_weight= 0.022334727054
<DFT>  Uele   =   -4.156303434773  dUele     =   0.000092511001
<DFT>  NormRD =    0.000069257562  Criterion =   0.000000010000

******************* MD= 1  SCF=12 *******************
<Poisson>  Poisson's equation using FFT...
<Set_Hamiltonian>  Hamiltonian matrix for VNA+dVH+Vxc...
<Cluster>  Solving the eigenvalue problem...
    1    C  MulP   2.0245  2.0245 sum   4.0490
    2    C  MulP   2.0245  2.0245 sum   4.0490
    3    H  MulP   0.4755  0.4755 sum   0.9510
    4    H  MulP   0.4755  0.4755 sum   0.9510
 Sum of MulP: up   =     5.00000 down          =     5.00000
              total=    10.00000 ideal(neutral)=    10.00000
<DFT>  Total Spin Moment (muB) =  0.000000000000
<DFT>  Mixing_weight= 0.022334727054
<DFT>  Uele   =   -4.156244460581  dUele     =   0.000058974192
<DFT>  NormRD =    0.000032014624  Criterion =   0.000000010000

******************* MD= 1  SCF=13 *******************
<Poisson>  Poisson's equation using FFT...
<Set_Hamiltonian>  Hamiltonian matrix for VNA+dVH+Vxc...
<Cluster>  Solving the eigenvalue problem...
    1    C  MulP   2.0245  2.0245 sum   4.0490
    2    C  MulP   2.0245  2.0245 sum   4.0490
    3    H  MulP   0.4755  0.4755 sum   0.9510
    4    H  MulP   0.4755  0.4755 sum   0.9510
 Sum of MulP: up   =     5.00000 down          =     5.00000
              total=    10.00000 ideal(neutral)=    10.00000
<DFT>  Total Spin Moment (muB) =  0.000000000000
<DFT>  Mixing_weight= 0.022334727054
<DFT>  Uele   =   -4.156211321844  dUele     =   0.000033138737
<DFT>  NormRD =    0.000009093285  Criterion =   0.000000010000

******************* MD= 1  SCF=14 *******************
<Poisson>  Poisson's equation using FFT...
<Set_Hamiltonian>  Hamiltonian matrix for VNA+dVH+Vxc...
<Cluster>  Solving the eigenvalue problem...
    1    C  MulP   2.0245  2.0245 sum   4.0490
    2    C  MulP   2.0245  2.0245 sum   4.0490
    3    H  MulP   0.4755  0.4755 sum   0.9510
    4    H  MulP   0.4755  0.4755 sum   0.9510
 Sum of MulP: up   =     5.00000 down          =     5.00000
              total=    10.00000 ideal(neutral)=    10.00000
<DFT>  Total Spin Moment (muB) =  0.000000000000
<DFT>  Mixing_weight= 0.022334727054
<DFT>  Uele   =   -4.156214180100  dUele     =   0.000002858256
<DFT>  NormRD =    0.000000345376  Criterion =   0.000000010000

******************* MD= 1  SCF=15 *******************
<Poisson>  Poisson's equation using FFT...
<Set_Hamiltonian>  Hamiltonian matrix for VNA+dVH+Vxc...
<Cluster>  Solving the eigenvalue problem...
    1    C  MulP   2.0245  2.0245 sum   4.0490
    2    C  MulP   2.0245  2.0245 sum   4.0490
    3    H  MulP   0.4755  0.4755 sum   0.9510
    4    H  MulP   0.4755  0.4755 sum   0.9510
 Sum of MulP: up   =     5.00000 down          =     5.00000
              total=    10.00000 ideal(neutral)=    10.00000
<DFT>  Total Spin Moment (muB) =  0.000000000000
<DFT>  Mixing_weight= 0.022334727054
<DFT>  Uele   =   -4.156213443225  dUele     =   0.000000736874
<DFT>  NormRD =    0.000000023136  Criterion =   0.000000010000

******************* MD= 1  SCF=16 *******************
<Poisson>  Poisson's equation using FFT...
<Set_Hamiltonian>  Hamiltonian matrix for VNA+dVH+Vxc...
<Cluster>  Solving the eigenvalue problem...
    1    C  MulP   2.0245  2.0245 sum   4.0490
    2    C  MulP   2.0245  2.0245 sum   4.0490
    3    H  MulP   0.4755  0.4755 sum   0.9510
    4    H  MulP   0.4755  0.4755 sum   0.9510
 Sum of MulP: up   =     5.00000 down          =     5.00000
              total=    10.00000 ideal(neutral)=    10.00000
<DFT>  Total Spin Moment (muB) =  0.000000000000
<DFT>  Mixing_weight= 0.022334727054
<DFT>  Uele   =   -4.156213481913  dUele     =   0.000000038688
<DFT>  NormRD =    0.000000011902  Criterion =   0.000000010000

******************* MD= 1  SCF=17 *******************
<Poisson>  Poisson's equation using FFT...
<Set_Hamiltonian>  Hamiltonian matrix for VNA+dVH+Vxc...
<Cluster>  Solving the eigenvalue problem...
    1    C  MulP   2.0245  2.0245 sum   4.0490
    2    C  MulP   2.0245  2.0245 sum   4.0490
    3    H  MulP   0.4755  0.4755 sum   0.9510
    4    H  MulP   0.4755  0.4755 sum   0.9510
 Sum of MulP: up   =     5.00000 down          =     5.00000
              total=    10.00000 ideal(neutral)=    10.00000
<DFT>  Total Spin Moment (muB) =  0.000000000000
<DFT>  Mixing_weight= 0.022334727054
<DFT>  Uele   =   -4.156213481115  dUele     =   0.000000000799
<DFT>  NormRD =    0.000000010761  Criterion =   0.000000010000
<MD= 1>  Force calculation
  Force calculation #1
  Force calculation #2
  Force calculation #3
  Force calculation #4
  Force calculation #5
<MD= 1>  Total Energy
  Force calculation #6
  Force calculation #7

*******************************************************
                  Dipole moment (Debye)                 
*******************************************************

 Absolute D        0.00000002

                      Dx                Dy                Dz
 Total              0.00000002        0.00000000       -0.00000001
 Core               0.00000000        0.00000000        0.00000000
 Electron           0.00000002        0.00000000       -0.00000001
 Back ground        0.00000000        0.00000000       -0.00000000

*******************************************************
                Total Energy (Hartree) at MD = 1        
*******************************************************

  Uele  =      -4.156213481115

  Ukin  =       8.865312286030
  UH0   =     -22.162986021416
  UH1   =       0.061253077867
  Una   =      -6.827066585801
  Unl   =      -0.804697518524
  Uxc0  =      -2.139714938375
  Uxc1  =      -2.139714938375
  Ucore =      12.484059440744
  Uhub  =       0.000000000000
  Ucs   =       0.000000000000
  Uzs   =       0.000000000000
  Uzo   =       0.000000000000
  Uef   =       0.000000000000
  UvdW  =       0.000000000000
  Uch   =       0.000000000000
  Utot  =     -12.663555197851

  UpV   =       0.000000000000
  Enpy  =     -12.663555197851
  Note:

  Uele:   band energy
  Ukin:   kinetic energy
  UH0:    electric part of screened Coulomb energy
  UH1:    difference electron-electron Coulomb energy
  Una:    neutral atom potential energy
  Unl:    non-local potential energy
  Uxc0:   exchange-correlation energy for alpha spin
  Uxc1:   exchange-correlation energy for beta spin
  Ucore:  core-core Coulomb energy
  Uhub:   LDA+U energy
  Ucs:    constraint energy for spin orientation
  Uzs:    Zeeman term for spin magnetic moment
  Uzo:    Zeeman term for orbital magnetic moment
  Uef:    electric energy by electric field
  UvdW:   semi-empirical vdW energy 
  Uch:    penalty term to create a core hole
  UpV:    pressure times volume
  Enpy:   Enthalpy = Utot + UpV
  (see also PRB 72, 045121(2005) for the energy contributions)


*******************************************************
           Computational times (s) at MD = 1            
*******************************************************

  DFT in total      =    4.28905

  Set_OLP_Kin       =    0.08632
  Set_Nonlocal      =    0.11131
  Set_ProExpn_VNA   =    0.29074
  Set_Hamiltonian   =    1.30363
  Poisson           =    0.83461
  diagonalization   =    0.15850
  Mixing_DM         =    0.00367
  Force             =    0.20617
  Total_Energy      =    0.08997
  Set_Aden_Grid     =    0.05085
  Set_Orbitals_Grid =    0.08686
  Set_Density_Grid  =    0.73417
  RestartFileDFT    =    0.23688
  Mulliken_Charge   =    0.00459
  FFT(2D)_Density   =    0.00000

*******************************************************
             MD or geometry opt. at MD = 1              
*******************************************************


*******************************************************
        Analysis of neighbors and setting of grids        
*******************************************************


*******************************************************
  Allocation of atoms to proccesors at MD_iter=    2     
*******************************************************

 proc =   0  # of atoms=   1  estimated weight=         1.00000
 proc =   1  # of atoms=   1  estimated weight=         1.00000
 proc =   2  # of atoms=   1  estimated weight=         1.00000
 proc =   3  # of atoms=   1  estimated weight=         1.00000
 proc =   4  # of atoms=   0  estimated weight=         0.00000
 proc =   5  # of atoms=   0  estimated weight=         0.00000
 proc =   6  # of atoms=   0  estimated weight=         0.00000
 proc =   7  # of atoms=   0  estimated weight=         0.00000
 proc =   8  # of atoms=   0  estimated weight=         0.00000
 proc =   9  # of atoms=   0  estimated weight=         0.00000
 proc =  10  # of atoms=   0  estimated weight=         0.00000
 proc =  11  # of atoms=   0  estimated weight=         0.00000
 proc =  12  # of atoms=   0  estimated weight=         0.00000
 proc =  13  # of atoms=   0  estimated weight=         0.00000
 proc =  14  # of atoms=   0  estimated weight=         0.00000
 proc =  15  # of atoms=   0  estimated weight=         0.00000
 proc =  16  # of atoms=   0  estimated weight=         0.00000
 proc =  17  # of atoms=   0  estimated weight=         0.00000
 proc =  18  # of atoms=   0  estimated weight=         0.00000
 proc =  19  # of atoms=   0  estimated weight=         0.00000
 proc =  20  # of atoms=   0  estimated weight=         0.00000
 proc =  21  # of atoms=   0  estimated weight=         0.00000
 proc =  22  # of atoms=   0  estimated weight=         0.00000
 proc =  23  # of atoms=   0  estimated weight=         0.00000



TFNAN=      12   Average FNAN=   3.00000
TSNAN=       0   Average SNAN=   0.00000
<truncation> CpyCell= 2 ct_AN=   1 FNAN SNAN   3   0
<truncation> CpyCell= 2 ct_AN=   2 FNAN SNAN   3   0
<truncation> CpyCell= 2 ct_AN=   3 FNAN SNAN   3   0
<truncation> CpyCell= 2 ct_AN=   4 FNAN SNAN   3   0
<UCell_Box> Info. of cutoff energy and num. of grids
lattice vectors (bohr)
A  = 40.000000000000,  0.000000000000,  0.000000000000
B  =  0.000000000000, 30.000000000000,  0.000000000000
C  =  0.000000000000,  0.000000000000, 30.000000000000
reciprocal lattice vectors (bohr^-1)
RA =  0.157079632679,  0.000000000000,  0.000000000000
RB =  0.000000000000,  0.209439510239,  0.000000000000
RC =  0.000000000000,  0.000000000000,  0.209439510239
Required cutoff energy (Ryd) for 3D-grids = 250.0000
    Used cutoff energy (Ryd) for 3D-grids = 246.7401, 246.7401, 246.7401
Num. of grids of a-, b-, and c-axes = 200, 150, 150
Cell_Volume =  36000.000000000000 (Bohr^3)
GridVol     =      0.008000000000 (Bohr^3)
Cell vectors (bohr) of the grid cell (gtv)
  gtv_a =  0.200000000000,  0.000000000000,  0.000000000000
  gtv_b =  0.000000000000,  0.200000000000,  0.000000000000
  gtv_c =  0.000000000000,  0.000000000000,  0.200000000000
  |gtv_a| =  0.200000000000
  |gtv_b| =  0.200000000000
  |gtv_c| =  0.200000000000
Num. of grids overlapping with atom    1 = 113088
Num. of grids overlapping with atom    2 = 113092
Num. of grids overlapping with atom    3 = 113248
Num. of grids overlapping with atom    4 = 113243

*******************************************************
             SCF calculation at MD = 2                
*******************************************************

<MD= 2>  Calculation of the overlap matrix
<MD= 2>  Calculation of the nonlocal matrix
<MD= 2>  Calculation of the VNA projector matrix

******************* MD= 2  SCF= 1 *******************
<Restart>  Found restart files
<Poisson>  Poisson's equation using FFT...
<Cluster>  Solving the eigenvalue problem...
    1    C  MulP   2.0257  2.0257 sum   4.0515
    2    C  MulP   2.0215  2.0215 sum   4.0430
    3    H  MulP   0.4770  0.4770 sum   0.9539
    4    H  MulP   0.4758  0.4758 sum   0.9517
 Sum of MulP: up   =     5.00000 down          =     5.00000
              total=    10.00000 ideal(neutral)=    10.00000
<DFT>  Total Spin Moment (muB) =  0.000000000000
<DFT>  Mixing_weight= 0.400000000000
<DFT>  Uele   =   -4.168366279329  dUele     =   1.000000000000
<DFT>  NormRD =    1.000000000000  Criterion =   0.000000010000

******************* MD= 2  SCF= 2 *******************
<Poisson>  Poisson's equation using FFT...
<Set_Hamiltonian>  Hamiltonian matrix for VNA+dVH+Vxc...
<Cluster>  Solving the eigenvalue problem...
    1    C  MulP   2.0153  2.0153 sum   4.0305
    2    C  MulP   2.0311  2.0311 sum   4.0623
    3    H  MulP   0.4775  0.4775 sum   0.9550
    4    H  MulP   0.4761  0.4761 sum   0.9522
 Sum of MulP: up   =     5.00000 down          =     5.00000
              total=    10.00000 ideal(neutral)=    10.00000
<DFT>  Total Spin Moment (muB) =  0.000000000000
<DFT>  Mixing_weight= 0.400000000000
<DFT>  Uele   =   -4.162051533622  dUele     =   0.006314745706
<DFT>  NormRD =    0.008912679389  Criterion =   0.000000010000

******************* MD= 2  SCF= 3 *******************
<Poisson>  Poisson's equation using FFT...
<Set_Hamiltonian>  Hamiltonian matrix for VNA+dVH+Vxc...
<Cluster>  Solving the eigenvalue problem...
    1    C  MulP   2.0290  2.0290 sum   4.0581
    2    C  MulP   2.0178  2.0178 sum   4.0357
    3    H  MulP   0.4767  0.4767 sum   0.9535
    4    H  MulP   0.4764  0.4764 sum   0.9528
 Sum of MulP: up   =     5.00000 down          =     5.00000
              total=    10.00000 ideal(neutral)=    10.00000
<DFT>  Total Spin Moment (muB) =  0.000000000000
<DFT>  Mixing_weight= 0.400000000000
<DFT>  Uele   =   -4.164346488378  dUele     =   0.002294954756
<DFT>  NormRD =    0.006226499581  Criterion =   0.000000010000

******************* MD= 2  SCF= 4 *******************
<Poisson>  Poisson's equation using FFT...
<Set_Hamiltonian>  Hamiltonian matrix for VNA+dVH+Vxc...
<Cluster>  Solving the eigenvalue problem...
    1    C  MulP   2.0189  2.0189 sum   4.0379
    2    C  MulP   2.0280  2.0280 sum   4.0560
    3    H  MulP   0.4772  0.4772 sum   0.9543
    4    H  MulP   0.4759  0.4759 sum   0.9518
 Sum of MulP: up   =     5.00000 down          =     5.00000
              total=    10.00000 ideal(neutral)=    10.00000
<DFT>  Total Spin Moment (muB) =  0.000000000000
<DFT>  Mixing_weight= 0.400000000000
<DFT>  Uele   =   -4.164858066465  dUele     =   0.000511578087
<DFT>  NormRD =    0.004627875620  Criterion =   0.000000010000

******************* MD= 2  SCF= 5 *******************
<Poisson>  Poisson's equation using FFT...
<Set_Hamiltonian>  Hamiltonian matrix for VNA+dVH+Vxc...
<Cluster>  Solving the eigenvalue problem...
    1    C  MulP   2.0234  2.0234 sum   4.0468
    2    C  MulP   2.0236  2.0236 sum   4.0472
    3    H  MulP   0.4770  0.4770 sum   0.9539
    4    H  MulP   0.4761  0.4761 sum   0.9521
 Sum of MulP: up   =     5.00000 down          =     5.00000
              total=    10.00000 ideal(neutral)=    10.00000
<DFT>  Total Spin Moment (muB) =  0.000000000000
<DFT>  Mixing_weight= 0.400000000000
<DFT>  Uele   =   -4.165463302257  dUele     =   0.000605235792
<DFT>  NormRD =    0.000408904635  Criterion =   0.000000010000

******************* MD= 2  SCF= 6 *******************
<Poisson>  Poisson's equation using FFT...
<Set_Hamiltonian>  Hamiltonian matrix for VNA+dVH+Vxc...
<Cluster>  Solving the eigenvalue problem...
    1    C  MulP   2.0233  2.0233 sum   4.0465
    2    C  MulP   2.0237  2.0237 sum   4.0474
    3    H  MulP   0.4770  0.4770 sum   0.9540
    4    H  MulP   0.4761  0.4761 sum   0.9522
 Sum of MulP: up   =     5.00000 down          =     5.00000
              total=    10.00000 ideal(neutral)=    10.00000
<DFT>  Total Spin Moment (muB) =  0.000000000000
<DFT>  Mixing_weight= 0.400000000000
<DFT>  Uele   =   -4.165180394352  dUele     =   0.000282907905
<DFT>  NormRD =    0.000048961520  Criterion =   0.000000010000

******************* MD= 2  SCF= 7 *******************
<Poisson>  Poisson's equation using FFT...
<Set_Hamiltonian>  Hamiltonian matrix for VNA+dVH+Vxc...
<Cluster>  Solving the eigenvalue problem...
    1    C  MulP   2.0233  2.0233 sum   4.0466
    2    C  MulP   2.0237  2.0237 sum   4.0474
    3    H  MulP   0.4770  0.4770 sum   0.9539
    4    H  MulP   0.4761  0.4761 sum   0.9522
 Sum of MulP: up   =     5.00000 down          =     5.00000
              total=    10.00000 ideal(neutral)=    10.00000
<DFT>  Total Spin Moment (muB) =  0.000000000000
<DFT>  Mixing_weight= 0.400000000000
<DFT>  Uele   =   -4.165243709295  dUele     =   0.000063314943
<DFT>  NormRD =    0.000019459090  Criterion =   0.000000010000

******************* MD= 2  SCF= 8 *******************
<Poisson>  Poisson's equation using FFT...
<Set_Hamiltonian>  Hamiltonian matrix for VNA+dVH+Vxc...
<Cluster>  Solving the eigenvalue problem...
    1    C  MulP   2.0233  2.0233 sum   4.0465
    2    C  MulP   2.0237  2.0237 sum   4.0474
    3    H  MulP   0.4770  0.4770 sum   0.9539
    4    H  MulP   0.4761  0.4761 sum   0.9522
 Sum of MulP: up   =     5.00000 down          =     5.00000
              total=    10.00000 ideal(neutral)=    10.00000
<DFT>  Total Spin Moment (muB) =  0.000000000000
<DFT>  Mixing_weight= 0.400000000000
<DFT>  Uele   =   -4.165204766865  dUele     =   0.000038942430
<DFT>  NormRD =    0.000006427204  Criterion =   0.000000010000

******************* MD= 2  SCF= 9 *******************
<Poisson>  Poisson's equation using FFT...
<Set_Hamiltonian>  Hamiltonian matrix for VNA+dVH+Vxc...
<Cluster>  Solving the eigenvalue problem...
    1    C  MulP   2.0233  2.0233 sum   4.0465
    2    C  MulP   2.0237  2.0237 sum   4.0474
    3    H  MulP   0.4770  0.4770 sum   0.9539
    4    H  MulP   0.4761  0.4761 sum   0.9522
 Sum of MulP: up   =     5.00000 down          =     5.00000
              total=    10.00000 ideal(neutral)=    10.00000
<DFT>  Total Spin Moment (muB) =  0.000000000000
<DFT>  Mixing_weight= 0.400000000000
<DFT>  Uele   =   -4.165216066466  dUele     =   0.000011299601
<DFT>  NormRD =    0.000000744311  Criterion =   0.000000010000

******************* MD= 2  SCF=10 *******************
<Poisson>  Poisson's equation using FFT...
<Set_Hamiltonian>  Hamiltonian matrix for VNA+dVH+Vxc...
<Cluster>  Solving the eigenvalue problem...
    1    C  MulP   2.0233  2.0233 sum   4.0465
    2    C  MulP   2.0237  2.0237 sum   4.0474
    3    H  MulP   0.4770  0.4770 sum   0.9539
    4    H  MulP   0.4761  0.4761 sum   0.9522
 Sum of MulP: up   =     5.00000 down          =     5.00000
              total=    10.00000 ideal(neutral)=    10.00000
<DFT>  Total Spin Moment (muB) =  0.000000000000
<DFT>  Mixing_weight= 0.400000000000
<DFT>  Uele   =   -4.165215766919  dUele     =   0.000000299547
<DFT>  NormRD =    0.000000116543  Criterion =   0.000000010000

******************* MD= 2  SCF=11 *******************
<Poisson>  Poisson's equation using FFT...
<Set_Hamiltonian>  Hamiltonian matrix for VNA+dVH+Vxc...
<Cluster>  Solving the eigenvalue problem...
    1    C  MulP   2.0233  2.0233 sum   4.0465
    2    C  MulP   2.0237  2.0237 sum   4.0474
    3    H  MulP   0.4770  0.4770 sum   0.9539
    4    H  MulP   0.4761  0.4761 sum   0.9522
 Sum of MulP: up   =     5.00000 down          =     5.00000
              total=    10.00000 ideal(neutral)=    10.00000
<DFT>  Total Spin Moment (muB) =  0.000000000000
<DFT>  Mixing_weight= 0.400000000000
<DFT>  Uele   =   -4.165215804929  dUele     =   0.000000038010
<DFT>  NormRD =    0.000000035730  Criterion =   0.000000010000

******************* MD= 2  SCF=12 *******************
<Poisson>  Poisson's equation using FFT...
<Set_Hamiltonian>  Hamiltonian matrix for VNA+dVH+Vxc...
<Cluster>  Solving the eigenvalue problem...
    1    C  MulP   2.0233  2.0233 sum   4.0465
    2    C  MulP   2.0237  2.0237 sum   4.0474
    3    H  MulP   0.4770  0.4770 sum   0.9539
    4    H  MulP   0.4761  0.4761 sum   0.9522
 Sum of MulP: up   =     5.00000 down          =     5.00000
              total=    10.00000 ideal(neutral)=    10.00000
<DFT>  Total Spin Moment (muB) =  0.000000000000
<DFT>  Mixing_weight= 0.400000000000
<DFT>  Uele   =   -4.165215749453  dUele     =   0.000000055476
<DFT>  NormRD =    0.000000004017  Criterion =   0.000000010000

******************* MD= 2  SCF=13 *******************
<Poisson>  Poisson's equation using FFT...
<Set_Hamiltonian>  Hamiltonian matrix for VNA+dVH+Vxc...
<Cluster>  Solving the eigenvalue problem...
    1    C  MulP   2.0233  2.0233 sum   4.0465
    2    C  MulP   2.0237  2.0237 sum   4.0474
    3    H  MulP   0.4770  0.4770 sum   0.9539
    4    H  MulP   0.4761  0.4761 sum   0.9522
 Sum of MulP: up   =     5.00000 down          =     5.00000
              total=    10.00000 ideal(neutral)=    10.00000
<DFT>  Total Spin Moment (muB) =  0.000000000000
<DFT>  Mixing_weight= 0.400000000000
<DFT>  Uele   =   -4.165215750915  dUele     =   0.000000001462
<DFT>  NormRD =    0.000000000155  Criterion =   0.000000010000
<MD= 2>  Force calculation
  Force calculation #1
  Force calculation #2
  Force calculation #3
  Force calculation #4
  Force calculation #5
<MD= 2>  Total Energy
  Force calculation #6
  Force calculation #7

*******************************************************
                  Dipole moment (Debye)                 
*******************************************************

 Absolute D        0.00931555

                      Dx                Dy                Dz
 Total             -0.00624473        0.00551363        0.00416927
 Core               0.04245710       -0.04171542       -0.03130395
 Electron          -0.04870182        0.04722905        0.03547322
 Back ground        0.00000000        0.00000000       -0.00000000

*******************************************************
                Total Energy (Hartree) at MD = 2        
*******************************************************

  Uele  =      -4.165215750915

  Ukin  =       8.877333498280
  UH0   =     -22.180864719418
  UH1   =       0.061104061791
  Una   =      -6.847796706573
  Unl   =      -0.803166741044
  Uxc0  =      -2.141821202833
  Uxc1  =      -2.141821202833
  Ucore =      12.510853733612
  Uhub  =       0.000000000000
  Ucs   =       0.000000000000
  Uzs   =       0.000000000000
  Uzo   =       0.000000000000
  Uef   =       0.000000000000
  UvdW  =       0.000000000000
  Uch   =       0.000000000000
  Utot  =     -12.666179279019

  UpV   =       0.000000000000
  Enpy  =     -12.666179279019
  Note:

  Uele:   band energy
  Ukin:   kinetic energy
  UH0:    electric part of screened Coulomb energy
  UH1:    difference electron-electron Coulomb energy
  Una:    neutral atom potential energy
  Unl:    non-local potential energy
  Uxc0:   exchange-correlation energy for alpha spin
  Uxc1:   exchange-correlation energy for beta spin
  Ucore:  core-core Coulomb energy
  Uhub:   LDA+U energy
  Ucs:    constraint energy for spin orientation
  Uzs:    Zeeman term for spin magnetic moment
  Uzo:    Zeeman term for orbital magnetic moment
  Uef:    electric energy by electric field
  UvdW:   semi-empirical vdW energy 
  Uch:    penalty term to create a core hole
  UpV:    pressure times volume
  Enpy:   Enthalpy = Utot + UpV
  (see also PRB 72, 045121(2005) for the energy contributions)


*******************************************************
           Computational times (s) at MD = 2            
*******************************************************

  DFT in total      =    3.61935

  Set_OLP_Kin       =    0.08309
  Set_Nonlocal      =    0.11237
  Set_ProExpn_VNA   =    0.28862
  Set_Hamiltonian   =    0.99695
  Poisson           =    0.50146
  diagonalization   =    0.10244
  Mixing_DM         =    0.00219
  Force             =    0.20120
  Total_Energy      =    0.07492
  Set_Aden_Grid     =    0.03759
  Set_Orbitals_Grid =    0.08641
  Set_Density_Grid  =    0.78868
  RestartFileDFT    =    0.30476
  Mulliken_Charge   =    0.00522
  FFT(2D)_Density   =    0.00000

*******************************************************
             MD or geometry opt. at MD = 2              
*******************************************************


*******************************************************
        Analysis of neighbors and setting of grids        
*******************************************************


*******************************************************
  Allocation of atoms to proccesors at MD_iter=    3     
*******************************************************

 proc =   0  # of atoms=   1  estimated weight=         1.00000
 proc =   1  # of atoms=   1  estimated weight=         1.00000
 proc =   2  # of atoms=   1  estimated weight=         1.00000
 proc =   3  # of atoms=   1  estimated weight=         1.00000
 proc =   4  # of atoms=   0  estimated weight=         0.00000
 proc =   5  # of atoms=   0  estimated weight=         0.00000
 proc =   6  # of atoms=   0  estimated weight=         0.00000
 proc =   7  # of atoms=   0  estimated weight=         0.00000
 proc =   8  # of atoms=   0  estimated weight=         0.00000
 proc =   9  # of atoms=   0  estimated weight=         0.00000
 proc =  10  # of atoms=   0  estimated weight=         0.00000
 proc =  11  # of atoms=   0  estimated weight=         0.00000
 proc =  12  # of atoms=   0  estimated weight=         0.00000
 proc =  13  # of atoms=   0  estimated weight=         0.00000
 proc =  14  # of atoms=   0  estimated weight=         0.00000
 proc =  15  # of atoms=   0  estimated weight=         0.00000
 proc =  16  # of atoms=   0  estimated weight=         0.00000
 proc =  17  # of atoms=   0  estimated weight=         0.00000
 proc =  18  # of atoms=   0  estimated weight=         0.00000
 proc =  19  # of atoms=   0  estimated weight=         0.00000
 proc =  20  # of atoms=   0  estimated weight=         0.00000
 proc =  21  # of atoms=   0  estimated weight=         0.00000
 proc =  22  # of atoms=   0  estimated weight=         0.00000
 proc =  23  # of atoms=   0  estimated weight=         0.00000



TFNAN=      12   Average FNAN=   3.00000
TSNAN=       0   Average SNAN=   0.00000
<truncation> CpyCell= 2 ct_AN=   1 FNAN SNAN   3   0
<truncation> CpyCell= 2 ct_AN=   2 FNAN SNAN   3   0
<truncation> CpyCell= 2 ct_AN=   3 FNAN SNAN   3   0
<truncation> CpyCell= 2 ct_AN=   4 FNAN SNAN   3   0
<UCell_Box> Info. of cutoff energy and num. of grids
lattice vectors (bohr)
A  = 40.000000000000,  0.000000000000,  0.000000000000
B  =  0.000000000000, 30.000000000000,  0.000000000000
C  =  0.000000000000,  0.000000000000, 30.000000000000
reciprocal lattice vectors (bohr^-1)
RA =  0.157079632679,  0.000000000000,  0.000000000000
RB =  0.000000000000,  0.209439510239,  0.000000000000
RC =  0.000000000000,  0.000000000000,  0.209439510239
Required cutoff energy (Ryd) for 3D-grids = 250.0000
    Used cutoff energy (Ryd) for 3D-grids = 246.7401, 246.7401, 246.7401
Num. of grids of a-, b-, and c-axes = 200, 150, 150
Cell_Volume =  36000.000000000000 (Bohr^3)
GridVol     =      0.008000000000 (Bohr^3)
Cell vectors (bohr) of the grid cell (gtv)
  gtv_a =  0.200000000000,  0.000000000000,  0.000000000000
  gtv_b =  0.000000000000,  0.200000000000,  0.000000000000
  gtv_c =  0.000000000000,  0.000000000000,  0.200000000000
  |gtv_a| =  0.200000000000
  |gtv_b| =  0.200000000000
  |gtv_c| =  0.200000000000
Num. of grids overlapping with atom    1 = 113111
Num. of grids overlapping with atom    2 = 113096
Num. of grids overlapping with atom    3 = 113125
Num. of grids overlapping with atom    4 = 113147

*******************************************************
             SCF calculation at MD = 3                
*******************************************************

<MD= 3>  Calculation of the overlap matrix
<MD= 3>  Calculation of the nonlocal matrix
<MD= 3>  Calculation of the VNA projector matrix

******************* MD= 3  SCF= 1 *******************
<Restart>  Found restart files
<Poisson>  Poisson's equation using FFT...
<Cluster>  Solving the eigenvalue problem...
    1    C  MulP   2.0239  2.0239 sum   4.0478
    2    C  MulP   2.0199  2.0199 sum   4.0399
    3    H  MulP   0.4790  0.4790 sum   0.9581
    4    H  MulP   0.4771  0.4771 sum   0.9542
 Sum of MulP: up   =     5.00000 down          =     5.00000
              total=    10.00000 ideal(neutral)=    10.00000
<DFT>  Total Spin Moment (muB) =  0.000000000000
<DFT>  Mixing_weight= 0.400000000000
<DFT>  Uele   =   -4.186737170301  dUele     =   1.000000000000
<DFT>  NormRD =    1.000000000000  Criterion =   0.000000010000

******************* MD= 3  SCF= 2 *******************
<Poisson>  Poisson's equation using FFT...
<Set_Hamiltonian>  Hamiltonian matrix for VNA+dVH+Vxc...
<Cluster>  Solving the eigenvalue problem...
    1    C  MulP   2.0129  2.0129 sum   4.0258
    2    C  MulP   2.0297  2.0297 sum   4.0593
    3    H  MulP   0.4798  0.4798 sum   0.9597
    4    H  MulP   0.4776  0.4776 sum   0.9552
 Sum of MulP: up   =     5.00000 down          =     5.00000
              total=    10.00000 ideal(neutral)=    10.00000
<DFT>  Total Spin Moment (muB) =  0.000000000000
<DFT>  Mixing_weight= 0.400000000000
<DFT>  Uele   =   -4.175873528607  dUele     =   0.010863641695
<DFT>  NormRD =    0.009642089297  Criterion =   0.000000010000

******************* MD= 3  SCF= 3 *******************
<Poisson>  Poisson's equation using FFT...
<Set_Hamiltonian>  Hamiltonian matrix for VNA+dVH+Vxc...
<Cluster>  Solving the eigenvalue problem...
    1    C  MulP   2.0273  2.0273 sum   4.0546
    2    C  MulP   2.0160  2.0160 sum   4.0319
    3    H  MulP   0.4789  0.4789 sum   0.9579
    4    H  MulP   0.4778  0.4778 sum   0.9555
 Sum of MulP: up   =     5.00000 down          =     5.00000
              total=    10.00000 ideal(neutral)=    10.00000
<DFT>  Total Spin Moment (muB) =  0.000000000000
<DFT>  Mixing_weight= 0.400000000000
<DFT>  Uele   =   -4.179613398028  dUele     =   0.003739869421
<DFT>  NormRD =    0.006622726772  Criterion =   0.000000010000

******************* MD= 3  SCF= 4 *******************
<Poisson>  Poisson's equation using FFT...
<Set_Hamiltonian>  Hamiltonian matrix for VNA+dVH+Vxc...
<Cluster>  Solving the eigenvalue problem...
    1    C  MulP   2.0167  2.0167 sum   4.0334
    2    C  MulP   2.0267  2.0267 sum   4.0534
    3    H  MulP   0.4793  0.4793 sum   0.9587
    4    H  MulP   0.4773  0.4773 sum   0.9545
 Sum of MulP: up   =     5.00000 down          =     5.00000
              total=    10.00000 ideal(neutral)=    10.00000
<DFT>  Total Spin Moment (muB) =  0.000000000000
<DFT>  Mixing_weight= 0.400000000000
<DFT>  Uele   =   -4.180545531021  dUele     =   0.000932132993
<DFT>  NormRD =    0.004928907910  Criterion =   0.000000010000

******************* MD= 3  SCF= 5 *******************
<Poisson>  Poisson's equation using FFT...
<Set_Hamiltonian>  Hamiltonian matrix for VNA+dVH+Vxc...
<Cluster>  Solving the eigenvalue problem...
    1    C  MulP   2.0216  2.0216 sum   4.0433
    2    C  MulP   2.0218  2.0218 sum   4.0437
    3    H  MulP   0.4791  0.4791 sum   0.9582
    4    H  MulP   0.4774  0.4774 sum   0.9548
 Sum of MulP: up   =     5.00000 down          =     5.00000
              total=    10.00000 ideal(neutral)=    10.00000
<DFT>  Total Spin Moment (muB) =  0.000000000000
<DFT>  Mixing_weight= 0.400000000000
<DFT>  Uele   =   -4.181655820731  dUele     =   0.001110289711
<DFT>  NormRD =    0.000611718512  Criterion =   0.000000010000

******************* MD= 3  SCF= 6 *******************
<Poisson>  Poisson's equation using FFT...
<Set_Hamiltonian>  Hamiltonian matrix for VNA+dVH+Vxc...
<Cluster>  Solving the eigenvalue problem...
    1    C  MulP   2.0213  2.0213 sum   4.0426
    2    C  MulP   2.0221  2.0221 sum   4.0442
    3    H  MulP   0.4792  0.4792 sum   0.9583
    4    H  MulP   0.4774  0.4774 sum   0.9549
 Sum of MulP: up   =     5.00000 down          =     5.00000
              total=    10.00000 ideal(neutral)=    10.00000
<DFT>  Total Spin Moment (muB) =  0.000000000000
<DFT>  Mixing_weight= 0.400000000000
<DFT>  Uele   =   -4.181141831273  dUele     =   0.000513989458
<DFT>  NormRD =    0.000062216857  Criterion =   0.000000010000

******************* MD= 3  SCF= 7 *******************
<Poisson>  Poisson's equation using FFT...
<Set_Hamiltonian>  Hamiltonian matrix for VNA+dVH+Vxc...
<Cluster>  Solving the eigenvalue problem...
    1    C  MulP   2.0213  2.0213 sum   4.0427
    2    C  MulP   2.0221  2.0221 sum   4.0442
    3    H  MulP   0.4791  0.4791 sum   0.9583
    4    H  MulP   0.4774  0.4774 sum   0.9548
 Sum of MulP: up   =     5.00000 down          =     5.00000
              total=    10.00000 ideal(neutral)=    10.00000
<DFT>  Total Spin Moment (muB) =  0.000000000000
<DFT>  Mixing_weight= 0.400000000000
<DFT>  Uele   =   -4.181251605395  dUele     =   0.000109774121
<DFT>  NormRD =    0.000031284308  Criterion =   0.000000010000

******************* MD= 3  SCF= 8 *******************
<Poisson>  Poisson's equation using FFT...
<Set_Hamiltonian>  Hamiltonian matrix for VNA+dVH+Vxc...
<Cluster>  Solving the eigenvalue problem...
    1    C  MulP   2.0213  2.0213 sum   4.0426
    2    C  MulP   2.0221  2.0221 sum   4.0442
    3    H  MulP   0.4792  0.4792 sum   0.9583
    4    H  MulP   0.4774  0.4774 sum   0.9548
 Sum of MulP: up   =     5.00000 down          =     5.00000
              total=    10.00000 ideal(neutral)=    10.00000
<DFT>  Total Spin Moment (muB) =  0.000000000000
<DFT>  Mixing_weight= 0.400000000000
<DFT>  Uele   =   -4.181190817568  dUele     =   0.000060787826
<DFT>  NormRD =    0.000007536752  Criterion =   0.000000010000

******************* MD= 3  SCF= 9 *******************
<Poisson>  Poisson's equation using FFT...
<Set_Hamiltonian>  Hamiltonian matrix for VNA+dVH+Vxc...
<Cluster>  Solving the eigenvalue problem...
    1    C  MulP   2.0213  2.0213 sum   4.0426
    2    C  MulP   2.0221  2.0221 sum   4.0442
    3    H  MulP   0.4792  0.4792 sum   0.9583
    4    H  MulP   0.4774  0.4774 sum   0.9548
 Sum of MulP: up   =     5.00000 down          =     5.00000
              total=    10.00000 ideal(neutral)=    10.00000
<DFT>  Total Spin Moment (muB) =  0.000000000000
<DFT>  Mixing_weight= 0.400000000000
<DFT>  Uele   =   -4.181203576539  dUele     =   0.000012758971
<DFT>  NormRD =    0.000000723359  Criterion =   0.000000010000

******************* MD= 3  SCF=10 *******************
<Poisson>  Poisson's equation using FFT...
<Set_Hamiltonian>  Hamiltonian matrix for VNA+dVH+Vxc...
<Cluster>  Solving the eigenvalue problem...
    1    C  MulP   2.0213  2.0213 sum   4.0426
    2    C  MulP   2.0221  2.0221 sum   4.0442
    3    H  MulP   0.4792  0.4792 sum   0.9583
    4    H  MulP   0.4774  0.4774 sum   0.9548
 Sum of MulP: up   =     5.00000 down          =     5.00000
              total=    10.00000 ideal(neutral)=    10.00000
<DFT>  Total Spin Moment (muB) =  0.000000000000
<DFT>  Mixing_weight= 0.400000000000
<DFT>  Uele   =   -4.181203793354  dUele     =   0.000000216815
<DFT>  NormRD =    0.000000142831  Criterion =   0.000000010000

******************* MD= 3  SCF=11 *******************
<Poisson>  Poisson's equation using FFT...
<Set_Hamiltonian>  Hamiltonian matrix for VNA+dVH+Vxc...
<Cluster>  Solving the eigenvalue problem...
    1    C  MulP   2.0213  2.0213 sum   4.0426
    2    C  MulP   2.0221  2.0221 sum   4.0442
    3    H  MulP   0.4792  0.4792 sum   0.9583
    4    H  MulP   0.4774  0.4774 sum   0.9548
 Sum of MulP: up   =     5.00000 down          =     5.00000
              total=    10.00000 ideal(neutral)=    10.00000
<DFT>  Total Spin Moment (muB) =  0.000000000000
<DFT>  Mixing_weight= 0.400000000000
<DFT>  Uele   =   -4.181203796366  dUele     =   0.000000003012
<DFT>  NormRD =    0.000000046246  Criterion =   0.000000010000
<MD= 3>  Force calculation
  Force calculation #1
  Force calculation #2
  Force calculation #3
  Force calculation #4
  Force calculation #5
<MD= 3>  Total Energy
  Force calculation #6
  Force calculation #7

*******************************************************
                  Dipole moment (Debye)                 
*******************************************************

 Absolute D        0.01834762

                      Dx                Dy                Dz
 Total             -0.01221603        0.01089219        0.00829240
 Core               0.08427472       -0.08330568       -0.06250542
 Electron          -0.09649075        0.09419788        0.07079782
 Back ground        0.00000000        0.00000000       -0.00000000

*******************************************************
                Total Energy (Hartree) at MD = 3        
*******************************************************

  Uele  =      -4.181203796366

  Ukin  =       8.898636923012
  UH0   =     -22.211272696732
  UH1   =       0.060897288187
  Una   =      -6.884964628791
  Unl   =      -0.800116692389
  Uxc0  =      -2.145500630168
  Uxc1  =      -2.145500630168
  Ucore =      12.557481664700
  Uhub  =       0.000000000000
  Ucs   =       0.000000000000
  Uzs   =       0.000000000000
  Uzo   =       0.000000000000
  Uef   =       0.000000000000
  UvdW  =       0.000000000000
  Uch   =       0.000000000000
  Utot  =     -12.670339402350

  UpV   =       0.000000000000
  Enpy  =     -12.670339402350
  Note:

  Uele:   band energy
  Ukin:   kinetic energy
  UH0:    electric part of screened Coulomb energy
  UH1:    difference electron-electron Coulomb energy
  Una:    neutral atom potential energy
  Unl:    non-local potential energy
  Uxc0:   exchange-correlation energy for alpha spin
  Uxc1:   exchange-correlation energy for beta spin
  Ucore:  core-core Coulomb energy
  Uhub:   LDA+U energy
  Ucs:    constraint energy for spin orientation
  Uzs:    Zeeman term for spin magnetic moment
  Uzo:    Zeeman term for orbital magnetic moment
  Uef:    electric energy by electric field
  UvdW:   semi-empirical vdW energy 
  Uch:    penalty term to create a core hole
  UpV:    pressure times volume
  Enpy:   Enthalpy = Utot + UpV
  (see also PRB 72, 045121(2005) for the energy contributions)


*******************************************************
           Computational times (s) at MD = 3            
*******************************************************

  DFT in total      =    3.17383

  Set_OLP_Kin       =    0.08510
  Set_Nonlocal      =    0.11410
  Set_ProExpn_VNA   =    0.30183
  Set_Hamiltonian   =    0.84637
  Poisson           =    0.45273
  diagonalization   =    0.07977
  Mixing_DM         =    0.00185
  Force             =    0.20641
  Total_Energy      =    0.07260
  Set_Aden_Grid     =    0.03288
  Set_Orbitals_Grid =    0.08710
  Set_Density_Grid  =    0.47881
  RestartFileDFT    =    0.34219
  Mulliken_Charge   =    0.00666
  FFT(2D)_Density   =    0.00000

*******************************************************
             MD or geometry opt. at MD = 3              
*******************************************************


*******************************************************
        Analysis of neighbors and setting of grids        
*******************************************************


*******************************************************
  Allocation of atoms to proccesors at MD_iter=    4     
*******************************************************

 proc =   0  # of atoms=   1  estimated weight=         1.00000
 proc =   1  # of atoms=   1  estimated weight=         1.00000
 proc =   2  # of atoms=   1  estimated weight=         1.00000
 proc =   3  # of atoms=   1  estimated weight=         1.00000
 proc =   4  # of atoms=   0  estimated weight=         0.00000
 proc =   5  # of atoms=   0  estimated weight=         0.00000
 proc =   6  # of atoms=   0  estimated weight=         0.00000
 proc =   7  # of atoms=   0  estimated weight=         0.00000
 proc =   8  # of atoms=   0  estimated weight=         0.00000
 proc =   9  # of atoms=   0  estimated weight=         0.00000
 proc =  10  # of atoms=   0  estimated weight=         0.00000
 proc =  11  # of atoms=   0  estimated weight=         0.00000
 proc =  12  # of atoms=   0  estimated weight=         0.00000
 proc =  13  # of atoms=   0  estimated weight=         0.00000
 proc =  14  # of atoms=   0  estimated weight=         0.00000
 proc =  15  # of atoms=   0  estimated weight=         0.00000
 proc =  16  # of atoms=   0  estimated weight=         0.00000
 proc =  17  # of atoms=   0  estimated weight=         0.00000
 proc =  18  # of atoms=   0  estimated weight=         0.00000
 proc =  19  # of atoms=   0  estimated weight=         0.00000
 proc =  20  # of atoms=   0  estimated weight=         0.00000
 proc =  21  # of atoms=   0  estimated weight=         0.00000
 proc =  22  # of atoms=   0  estimated weight=         0.00000
 proc =  23  # of atoms=   0  estimated weight=         0.00000



TFNAN=      12   Average FNAN=   3.00000
TSNAN=       0   Average SNAN=   0.00000
<truncation> CpyCell= 2 ct_AN=   1 FNAN SNAN   3   0
<truncation> CpyCell= 2 ct_AN=   2 FNAN SNAN   3   0
<truncation> CpyCell= 2 ct_AN=   3 FNAN SNAN   3   0
<truncation> CpyCell= 2 ct_AN=   4 FNAN SNAN   3   0
<UCell_Box> Info. of cutoff energy and num. of grids
lattice vectors (bohr)
A  = 40.000000000000,  0.000000000000,  0.000000000000
B  =  0.000000000000, 30.000000000000,  0.000000000000
C  =  0.000000000000,  0.000000000000, 30.000000000000
reciprocal lattice vectors (bohr^-1)
RA =  0.157079632679,  0.000000000000,  0.000000000000
RB =  0.000000000000,  0.209439510239,  0.000000000000
RC =  0.000000000000,  0.000000000000,  0.209439510239
Required cutoff energy (Ryd) for 3D-grids = 250.0000
    Used cutoff energy (Ryd) for 3D-grids = 246.7401, 246.7401, 246.7401
Num. of grids of a-, b-, and c-axes = 200, 150, 150
Cell_Volume =  36000.000000000000 (Bohr^3)
GridVol     =      0.008000000000 (Bohr^3)
Cell vectors (bohr) of the grid cell (gtv)
  gtv_a =  0.200000000000,  0.000000000000,  0.000000000000
  gtv_b =  0.000000000000,  0.200000000000,  0.000000000000
  gtv_c =  0.000000000000,  0.000000000000,  0.200000000000
  |gtv_a| =  0.200000000000
  |gtv_b| =  0.200000000000
  |gtv_c| =  0.200000000000
Num. of grids overlapping with atom    1 = 113134
Num. of grids overlapping with atom    2 = 113093
Num. of grids overlapping with atom    3 = 113057
Num. of grids overlapping with atom    4 = 113095

*******************************************************
             SCF calculation at MD = 4                
*******************************************************

<MD= 4>  Calculation of the overlap matrix
<MD= 4>  Calculation of the nonlocal matrix
<MD= 4>  Calculation of the VNA projector matrix

******************* MD= 4  SCF= 1 *******************
<Restart>  Found restart files
<Poisson>  Poisson's equation using FFT...
<Cluster>  Solving the eigenvalue problem...
    1    C  MulP   2.0189  2.0189 sum   4.0379
    2    C  MulP   2.0201  2.0201 sum   4.0403
    3    H  MulP   0.4817  0.4817 sum   0.9633
    4    H  MulP   0.4793  0.4793 sum   0.9585
 Sum of MulP: up   =     5.00000 down          =     5.00000
              total=    10.00000 ideal(neutral)=    10.00000
<DFT>  Total Spin Moment (muB) =  0.000000000000
<DFT>  Mixing_weight= 0.400000000000
<DFT>  Uele   =   -4.204606232803  dUele     =   1.000000000000
<DFT>  NormRD =    1.000000000000  Criterion =   0.000000010000

******************* MD= 4  SCF= 2 *******************
<Poisson>  Poisson's equation using FFT...
<Set_Hamiltonian>  Hamiltonian matrix for VNA+dVH+Vxc...
<Cluster>  Solving the eigenvalue problem...
    1    C  MulP   2.0189  2.0189 sum   4.0378
    2    C  MulP   2.0196  2.0196 sum   4.0392
    3    H  MulP   0.4819  0.4819 sum   0.9639
    4    H  MulP   0.4795  0.4795 sum   0.9590
 Sum of MulP: up   =     5.00000 down          =     5.00000
              total=    10.00000 ideal(neutral)=    10.00000
<DFT>  Total Spin Moment (muB) =  0.000000000000
<DFT>  Mixing_weight= 0.400000000000
<DFT>  Uele   =   -4.202779193572  dUele     =   0.001827039231
<DFT>  NormRD =    0.000665137956  Criterion =   0.000000010000

******************* MD= 4  SCF= 3 *******************
<Poisson>  Poisson's equation using FFT...
<Set_Hamiltonian>  Hamiltonian matrix for VNA+dVH+Vxc...
<Cluster>  Solving the eigenvalue problem...
    1    C  MulP   2.0187  2.0187 sum   4.0374
    2    C  MulP   2.0201  2.0201 sum   4.0401
    3    H  MulP   0.4818  0.4818 sum   0.9637
    4    H  MulP   0.4794  0.4794 sum   0.9588
 Sum of MulP: up   =     5.00000 down          =     5.00000
              total=    10.00000 ideal(neutral)=    10.00000
<DFT>  Total Spin Moment (muB) =  0.000000000000
<DFT>  Mixing_weight= 0.400000000000
<DFT>  Uele   =   -4.203618162421  dUele     =   0.000838968849
<DFT>  NormRD =    0.000201253606  Criterion =   0.000000010000

******************* MD= 4  SCF= 4 *******************
<Poisson>  Poisson's equation using FFT...
<Set_Hamiltonian>  Hamiltonian matrix for VNA+dVH+Vxc...
<Cluster>  Solving the eigenvalue problem...
    1    C  MulP   2.0190  2.0190 sum   4.0379
    2    C  MulP   2.0198  2.0198 sum   4.0396
    3    H  MulP   0.4818  0.4818 sum   0.9636
    4    H  MulP   0.4794  0.4794 sum   0.9588
 Sum of MulP: up   =     5.00000 down          =     5.00000
              total=    10.00000 ideal(neutral)=    10.00000
<DFT>  Total Spin Moment (muB) =  0.000000000000
<DFT>  Mixing_weight= 0.400000000000
<DFT>  Uele   =   -4.203724990456  dUele     =   0.000106828034
<DFT>  NormRD =    0.000133738553  Criterion =   0.000000010000

******************* MD= 4  SCF= 5 *******************
<Poisson>  Poisson's equation using FFT...
<Set_Hamiltonian>  Hamiltonian matrix for VNA+dVH+Vxc...
<Cluster>  Solving the eigenvalue problem...
    1    C  MulP   2.0188  2.0188 sum   4.0376
    2    C  MulP   2.0200  2.0200 sum   4.0400
    3    H  MulP   0.4818  0.4818 sum   0.9636
    4    H  MulP   0.4794  0.4794 sum   0.9588
 Sum of MulP: up   =     5.00000 down          =     5.00000
              total=    10.00000 ideal(neutral)=    10.00000
<DFT>  Total Spin Moment (muB) =  0.000000000000
<DFT>  Mixing_weight= 0.400000000000
<DFT>  Uele   =   -4.203820857104  dUele     =   0.000095866649
<DFT>  NormRD =    0.000083747070  Criterion =   0.000000010000

******************* MD= 4  SCF= 6 *******************
<Poisson>  Poisson's equation using FFT...
<Set_Hamiltonian>  Hamiltonian matrix for VNA+dVH+Vxc...
<Cluster>  Solving the eigenvalue problem...
    1    C  MulP   2.0189  2.0189 sum   4.0377
    2    C  MulP   2.0199  2.0199 sum   4.0399
    3    H  MulP   0.4818  0.4818 sum   0.9636
    4    H  MulP   0.4794  0.4794 sum   0.9588
 Sum of MulP: up   =     5.00000 down          =     5.00000
              total=    10.00000 ideal(neutral)=    10.00000
<DFT>  Total Spin Moment (muB) =  0.000000000000
<DFT>  Mixing_weight= 0.400000000000
<DFT>  Uele   =   -4.203740693061  dUele     =   0.000080164043
<DFT>  NormRD =    0.000013942786  Criterion =   0.000000010000

******************* MD= 4  SCF= 7 *******************
<Poisson>  Poisson's equation using FFT...
<Set_Hamiltonian>  Hamiltonian matrix for VNA+dVH+Vxc...
<Cluster>  Solving the eigenvalue problem...
    1    C  MulP   2.0189  2.0189 sum   4.0377
    2    C  MulP   2.0199  2.0199 sum   4.0399
    3    H  MulP   0.4818  0.4818 sum   0.9636
    4    H  MulP   0.4794  0.4794 sum   0.9588
 Sum of MulP: up   =     5.00000 down          =     5.00000
              total=    10.00000 ideal(neutral)=    10.00000
<DFT>  Total Spin Moment (muB) =  0.000000000000
<DFT>  Mixing_weight= 0.400000000000
<DFT>  Uele   =   -4.203767499270  dUele     =   0.000026806209
<DFT>  NormRD =    0.000003037796  Criterion =   0.000000010000

******************* MD= 4  SCF= 8 *******************
<Poisson>  Poisson's equation using FFT...
<Set_Hamiltonian>  Hamiltonian matrix for VNA+dVH+Vxc...
<Cluster>  Solving the eigenvalue problem...
    1    C  MulP   2.0189  2.0189 sum   4.0377
    2    C  MulP   2.0199  2.0199 sum   4.0399
    3    H  MulP   0.4818  0.4818 sum   0.9636
    4    H  MulP   0.4794  0.4794 sum   0.9588
 Sum of MulP: up   =     5.00000 down          =     5.00000
              total=    10.00000 ideal(neutral)=    10.00000
<DFT>  Total Spin Moment (muB) =  0.000000000000
<DFT>  Mixing_weight= 0.400000000000
<DFT>  Uele   =   -4.203762959142  dUele     =   0.000004540128
<DFT>  NormRD =    0.000000435484  Criterion =   0.000000010000

******************* MD= 4  SCF= 9 *******************
<Poisson>  Poisson's equation using FFT...
<Set_Hamiltonian>  Hamiltonian matrix for VNA+dVH+Vxc...
<Cluster>  Solving the eigenvalue problem...
    1    C  MulP   2.0189  2.0189 sum   4.0377
    2    C  MulP   2.0199  2.0199 sum   4.0399
    3    H  MulP   0.4818  0.4818 sum   0.9636
    4    H  MulP   0.4794  0.4794 sum   0.9588
 Sum of MulP: up   =     5.00000 down          =     5.00000
              total=    10.00000 ideal(neutral)=    10.00000
<DFT>  Total Spin Moment (muB) =  0.000000000000
<DFT>  Mixing_weight= 0.400000000000
<DFT>  Uele   =   -4.203763354648  dUele     =   0.000000395506
<DFT>  NormRD =    0.000000054126  Criterion =   0.000000010000

******************* MD= 4  SCF=10 *******************
<Poisson>  Poisson's equation using FFT...
<Set_Hamiltonian>  Hamiltonian matrix for VNA+dVH+Vxc...
<Cluster>  Solving the eigenvalue problem...
    1    C  MulP   2.0189  2.0189 sum   4.0377
    2    C  MulP   2.0199  2.0199 sum   4.0399
    3    H  MulP   0.4818  0.4818 sum   0.9636
    4    H  MulP   0.4794  0.4794 sum   0.9588
 Sum of MulP: up   =     5.00000 down          =     5.00000
              total=    10.00000 ideal(neutral)=    10.00000
<DFT>  Total Spin Moment (muB) =  0.000000000000
<DFT>  Mixing_weight= 0.400000000000
<DFT>  Uele   =   -4.203763421845  dUele     =   0.000000067197
<DFT>  NormRD =    0.000000005189  Criterion =   0.000000010000

******************* MD= 4  SCF=11 *******************
<Poisson>  Poisson's equation using FFT...
<Set_Hamiltonian>  Hamiltonian matrix for VNA+dVH+Vxc...
<Cluster>  Solving the eigenvalue problem...
    1    C  MulP   2.0189  2.0189 sum   4.0377
    2    C  MulP   2.0199  2.0199 sum   4.0399
    3    H  MulP   0.4818  0.4818 sum   0.9636
    4    H  MulP   0.4794  0.4794 sum   0.9588
 Sum of MulP: up   =     5.00000 down          =     5.00000
              total=    10.00000 ideal(neutral)=    10.00000
<DFT>  Total Spin Moment (muB) =  0.000000000000
<DFT>  Mixing_weight= 0.400000000000
<DFT>  Uele   =   -4.203763423065  dUele     =   0.000000001220
<DFT>  NormRD =    0.000000002646  Criterion =   0.000000010000
<MD= 4>  Force calculation
  Force calculation #1
  Force calculation #2
  Force calculation #3
  Force calculation #4
  Force calculation #5
<MD= 4>  Total Energy
  Force calculation #6
  Force calculation #7

*******************************************************
                  Dipole moment (Debye)                 
*******************************************************

 Absolute D        0.02678023

                      Dx                Dy                Dz
 Total             -0.01755359        0.01606593        0.01228570
 Core               0.12317503       -0.12437125       -0.09325890
 Electron          -0.14072862        0.14043718        0.10554460
 Back ground        0.00000000        0.00000000       -0.00000000

*******************************************************
                Total Energy (Hartree) at MD = 4        
*******************************************************

  Uele  =      -4.203763423065

  Ukin  =       8.930273074603
  UH0   =     -22.253444051730
  UH1   =       0.060690088539
  Una   =      -6.939774049991
  Unl   =      -0.795692859590
  Uxc0  =      -2.150771903963
  Uxc1  =      -2.150771903963
  Ucore =      12.624514995812
  Uhub  =       0.000000000000
  Ucs   =       0.000000000000
  Uzs   =       0.000000000000
  Uzo   =       0.000000000000
  Uef   =       0.000000000000
  UvdW  =       0.000000000000
  Uch   =       0.000000000000
  Utot  =     -12.674976610283

  UpV   =       0.000000000000
  Enpy  =     -12.674976610283
  Note:

  Uele:   band energy
  Ukin:   kinetic energy
  UH0:    electric part of screened Coulomb energy
  UH1:    difference electron-electron Coulomb energy
  Una:    neutral atom potential energy
  Unl:    non-local potential energy
  Uxc0:   exchange-correlation energy for alpha spin
  Uxc1:   exchange-correlation energy for beta spin
  Ucore:  core-core Coulomb energy
  Uhub:   LDA+U energy
  Ucs:    constraint energy for spin orientation
  Uzs:    Zeeman term for spin magnetic moment
  Uzo:    Zeeman term for orbital magnetic moment
  Uef:    electric energy by electric field
  UvdW:   semi-empirical vdW energy 
  Uch:    penalty term to create a core hole
  UpV:    pressure times volume
  Enpy:   Enthalpy = Utot + UpV
  (see also PRB 72, 045121(2005) for the energy contributions)


*******************************************************
           Computational times (s) at MD = 4            
*******************************************************

  DFT in total      =    3.06435

  Set_OLP_Kin       =    0.08429
  Set_Nonlocal      =    0.11693
  Set_ProExpn_VNA   =    0.29093
  Set_Hamiltonian   =    0.80285
  Poisson           =    0.41787
  diagonalization   =    0.07136
  Mixing_DM         =    0.00163
  Force             =    0.19679
  Total_Energy      =    0.07221
  Set_Aden_Grid     =    0.03708
  Set_Orbitals_Grid =    0.08818
  Set_Density_Grid  =    0.50511
  RestartFileDFT    =    0.34262
  Mulliken_Charge   =    0.00496
  FFT(2D)_Density   =    0.00000

*******************************************************
             MD or geometry opt. at MD = 4              
*******************************************************


*******************************************************
        Analysis of neighbors and setting of grids        
*******************************************************


*******************************************************
  Allocation of atoms to proccesors at MD_iter=    5     
*******************************************************

 proc =   0  # of atoms=   1  estimated weight=         1.00000
 proc =   1  # of atoms=   1  estimated weight=         1.00000
 proc =   2  # of atoms=   1  estimated weight=         1.00000
 proc =   3  # of atoms=   1  estimated weight=         1.00000
 proc =   4  # of atoms=   0  estimated weight=         0.00000
 proc =   5  # of atoms=   0  estimated weight=         0.00000
 proc =   6  # of atoms=   0  estimated weight=         0.00000
 proc =   7  # of atoms=   0  estimated weight=         0.00000
 proc =   8  # of atoms=   0  estimated weight=         0.00000
 proc =   9  # of atoms=   0  estimated weight=         0.00000
 proc =  10  # of atoms=   0  estimated weight=         0.00000
 proc =  11  # of atoms=   0  estimated weight=         0.00000
 proc =  12  # of atoms=   0  estimated weight=         0.00000
 proc =  13  # of atoms=   0  estimated weight=         0.00000
 proc =  14  # of atoms=   0  estimated weight=         0.00000
 proc =  15  # of atoms=   0  estimated weight=         0.00000
 proc =  16  # of atoms=   0  estimated weight=         0.00000
 proc =  17  # of atoms=   0  estimated weight=         0.00000
 proc =  18  # of atoms=   0  estimated weight=         0.00000
 proc =  19  # of atoms=   0  estimated weight=         0.00000
 proc =  20  # of atoms=   0  estimated weight=         0.00000
 proc =  21  # of atoms=   0  estimated weight=         0.00000
 proc =  22  # of atoms=   0  estimated weight=         0.00000
 proc =  23  # of atoms=   0  estimated weight=         0.00000



TFNAN=      12   Average FNAN=   3.00000
TSNAN=       0   Average SNAN=   0.00000
<truncation> CpyCell= 2 ct_AN=   1 FNAN SNAN   3   0
<truncation> CpyCell= 2 ct_AN=   2 FNAN SNAN   3   0
<truncation> CpyCell= 2 ct_AN=   3 FNAN SNAN   3   0
<truncation> CpyCell= 2 ct_AN=   4 FNAN SNAN   3   0
<UCell_Box> Info. of cutoff energy and num. of grids
lattice vectors (bohr)
A  = 40.000000000000,  0.000000000000,  0.000000000000
B  =  0.000000000000, 30.000000000000,  0.000000000000
C  =  0.000000000000,  0.000000000000, 30.000000000000
reciprocal lattice vectors (bohr^-1)
RA =  0.157079632679,  0.000000000000,  0.000000000000
RB =  0.000000000000,  0.209439510239,  0.000000000000
RC =  0.000000000000,  0.000000000000,  0.209439510239
Required cutoff energy (Ryd) for 3D-grids = 250.0000
    Used cutoff energy (Ryd) for 3D-grids = 246.7401, 246.7401, 246.7401
Num. of grids of a-, b-, and c-axes = 200, 150, 150
Cell_Volume =  36000.000000000000 (Bohr^3)
GridVol     =      0.008000000000 (Bohr^3)
Cell vectors (bohr) of the grid cell (gtv)
  gtv_a =  0.200000000000,  0.000000000000,  0.000000000000
  gtv_b =  0.000000000000,  0.200000000000,  0.000000000000
  gtv_c =  0.000000000000,  0.000000000000,  0.200000000000
  |gtv_a| =  0.200000000000
  |gtv_b| =  0.200000000000
  |gtv_c| =  0.200000000000
Num. of grids overlapping with atom    1 = 113141
Num. of grids overlapping with atom    2 = 113084
Num. of grids overlapping with atom    3 = 113105
Num. of grids overlapping with atom    4 = 113092

*******************************************************
             SCF calculation at MD = 5                
*******************************************************

<MD= 5>  Calculation of the overlap matrix
<MD= 5>  Calculation of the nonlocal matrix
<MD= 5>  Calculation of the VNA projector matrix

******************* MD= 5  SCF= 1 *******************
<Restart>  Found restart files
<Poisson>  Poisson's equation using FFT...
<Cluster>  Solving the eigenvalue problem...
    1    C  MulP   2.0163  2.0163 sum   4.0325
    2    C  MulP   2.0178  2.0178 sum   4.0356
    3    H  MulP   0.4844  0.4844 sum   0.9687
    4    H  MulP   0.4816  0.4816 sum   0.9632
 Sum of MulP: up   =     5.00000 down          =     5.00000
              total=    10.00000 ideal(neutral)=    10.00000
<DFT>  Total Spin Moment (muB) =  0.000000000000
<DFT>  Mixing_weight= 0.400000000000
<DFT>  Uele   =   -4.233099199308  dUele     =   1.000000000000
<DFT>  NormRD =    1.000000000000  Criterion =   0.000000010000

******************* MD= 5  SCF= 2 *******************
<Poisson>  Poisson's equation using FFT...
<Set_Hamiltonian>  Hamiltonian matrix for VNA+dVH+Vxc...
<Cluster>  Solving the eigenvalue problem...
    1    C  MulP   2.0166  2.0166 sum   4.0331
    2    C  MulP   2.0167  2.0167 sum   4.0335
    3    H  MulP   0.4847  0.4847 sum   0.9695
    4    H  MulP   0.4820  0.4820 sum   0.9639
 Sum of MulP: up   =     5.00000 down          =     5.00000
              total=    10.00000 ideal(neutral)=    10.00000
<DFT>  Total Spin Moment (muB) =  0.000000000000
<DFT>  Mixing_weight= 0.400000000000
<DFT>  Uele   =   -4.230625676036  dUele     =   0.002473523272
<DFT>  NormRD =    0.001030027516  Criterion =   0.000000010000

******************* MD= 5  SCF= 3 *******************
<Poisson>  Poisson's equation using FFT...
<Set_Hamiltonian>  Hamiltonian matrix for VNA+dVH+Vxc...
<Cluster>  Solving the eigenvalue problem...
    1    C  MulP   2.0158  2.0158 sum   4.0316
    2    C  MulP   2.0178  2.0178 sum   4.0357
    3    H  MulP   0.4846  0.4846 sum   0.9692
    4    H  MulP   0.4818  0.4818 sum   0.9636
 Sum of MulP: up   =     5.00000 down          =     5.00000
              total=    10.00000 ideal(neutral)=    10.00000
<DFT>  Total Spin Moment (muB) =  0.000000000000
<DFT>  Mixing_weight= 0.400000000000
<DFT>  Uele   =   -4.231763796729  dUele     =   0.001138120693
<DFT>  NormRD =    0.000468133941  Criterion =   0.000000010000

******************* MD= 5  SCF= 4 *******************
<Poisson>  Poisson's equation using FFT...
<Set_Hamiltonian>  Hamiltonian matrix for VNA+dVH+Vxc...
<Cluster>  Solving the eigenvalue problem...
    1    C  MulP   2.0165  2.0165 sum   4.0331
    2    C  MulP   2.0171  2.0171 sum   4.0342
    3    H  MulP   0.4846  0.4846 sum   0.9691
    4    H  MulP   0.4818  0.4818 sum   0.9636
 Sum of MulP: up   =     5.00000 down          =     5.00000
              total=    10.00000 ideal(neutral)=    10.00000
<DFT>  Total Spin Moment (muB) =  0.000000000000
<DFT>  Mixing_weight= 0.400000000000
<DFT>  Uele   =   -4.231921976266  dUele     =   0.000158179537
<DFT>  NormRD =    0.000351037436  Criterion =   0.000000010000

******************* MD= 5  SCF= 5 *******************
<Poisson>  Poisson's equation using FFT...
<Set_Hamiltonian>  Hamiltonian matrix for VNA+dVH+Vxc...
<Cluster>  Solving the eigenvalue problem...
    1    C  MulP   2.0162  2.0162 sum   4.0323
    2    C  MulP   2.0175  2.0175 sum   4.0350
    3    H  MulP   0.4846  0.4846 sum   0.9691
    4    H  MulP   0.4818  0.4818 sum   0.9635
 Sum of MulP: up   =     5.00000 down          =     5.00000
              total=    10.00000 ideal(neutral)=    10.00000
<DFT>  Total Spin Moment (muB) =  0.000000000000
<DFT>  Mixing_weight= 0.400000000000
<DFT>  Uele   =   -4.232070581919  dUele     =   0.000148605653
<DFT>  NormRD =    0.000088056378  Criterion =   0.000000010000

******************* MD= 5  SCF= 6 *******************
<Poisson>  Poisson's equation using FFT...
<Set_Hamiltonian>  Hamiltonian matrix for VNA+dVH+Vxc...
<Cluster>  Solving the eigenvalue problem...
    1    C  MulP   2.0162  2.0162 sum   4.0324
    2    C  MulP   2.0174  2.0174 sum   4.0349
    3    H  MulP   0.4846  0.4846 sum   0.9692
    4    H  MulP   0.4818  0.4818 sum   0.9636
 Sum of MulP: up   =     5.00000 down          =     5.00000
              total=    10.00000 ideal(neutral)=    10.00000
<DFT>  Total Spin Moment (muB) =  0.000000000000
<DFT>  Mixing_weight= 0.400000000000
<DFT>  Uele   =   -4.231939554810  dUele     =   0.000131027108
<DFT>  NormRD =    0.000020111959  Criterion =   0.000000010000

******************* MD= 5  SCF= 7 *******************
<Poisson>  Poisson's equation using FFT...
<Set_Hamiltonian>  Hamiltonian matrix for VNA+dVH+Vxc...
<Cluster>  Solving the eigenvalue problem...
    1    C  MulP   2.0162  2.0162 sum   4.0324
    2    C  MulP   2.0174  2.0174 sum   4.0349
    3    H  MulP   0.4846  0.4846 sum   0.9691
    4    H  MulP   0.4818  0.4818 sum   0.9635
 Sum of MulP: up   =     5.00000 down          =     5.00000
              total=    10.00000 ideal(neutral)=    10.00000
<DFT>  Total Spin Moment (muB) =  0.000000000000
<DFT>  Mixing_weight= 0.400000000000
<DFT>  Uele   =   -4.231979095724  dUele     =   0.000039540914
<DFT>  NormRD =    0.000003751257  Criterion =   0.000000010000

******************* MD= 5  SCF= 8 *******************
<Poisson>  Poisson's equation using FFT...
<Set_Hamiltonian>  Hamiltonian matrix for VNA+dVH+Vxc...
<Cluster>  Solving the eigenvalue problem...
    1    C  MulP   2.0162  2.0162 sum   4.0324
    2    C  MulP   2.0174  2.0174 sum   4.0349
    3    H  MulP   0.4846  0.4846 sum   0.9691
    4    H  MulP   0.4818  0.4818 sum   0.9635
 Sum of MulP: up   =     5.00000 down          =     5.00000
              total=    10.00000 ideal(neutral)=    10.00000
<DFT>  Total Spin Moment (muB) =  0.000000000000
<DFT>  Mixing_weight= 0.400000000000
<DFT>  Uele   =   -4.231973862915  dUele     =   0.000005232809
<DFT>  NormRD =    0.000000396007  Criterion =   0.000000010000

******************* MD= 5  SCF= 9 *******************
<Poisson>  Poisson's equation using FFT...
<Set_Hamiltonian>  Hamiltonian matrix for VNA+dVH+Vxc...
<Cluster>  Solving the eigenvalue problem...
    1    C  MulP   2.0162  2.0162 sum   4.0324
    2    C  MulP   2.0174  2.0174 sum   4.0349
    3    H  MulP   0.4846  0.4846 sum   0.9691
    4    H  MulP   0.4818  0.4818 sum   0.9635
 Sum of MulP: up   =     5.00000 down          =     5.00000
              total=    10.00000 ideal(neutral)=    10.00000
<DFT>  Total Spin Moment (muB) =  0.000000000000
<DFT>  Mixing_weight= 0.400000000000
<DFT>  Uele   =   -4.231974112075  dUele     =   0.000000249159
<DFT>  NormRD =    0.000000060240  Criterion =   0.000000010000

******************* MD= 5  SCF=10 *******************
<Poisson>  Poisson's equation using FFT...
<Set_Hamiltonian>  Hamiltonian matrix for VNA+dVH+Vxc...
<Cluster>  Solving the eigenvalue problem...
    1    C  MulP   2.0162  2.0162 sum   4.0324
    2    C  MulP   2.0174  2.0174 sum   4.0349
    3    H  MulP   0.4846  0.4846 sum   0.9691
    4    H  MulP   0.4818  0.4818 sum   0.9635
 Sum of MulP: up   =     5.00000 down          =     5.00000
              total=    10.00000 ideal(neutral)=    10.00000
<DFT>  Total Spin Moment (muB) =  0.000000000000
<DFT>  Mixing_weight= 0.400000000000
<DFT>  Uele   =   -4.231974191328  dUele     =   0.000000079253
<DFT>  NormRD =    0.000000006417  Criterion =   0.000000010000

******************* MD= 5  SCF=11 *******************
<Poisson>  Poisson's equation using FFT...
<Set_Hamiltonian>  Hamiltonian matrix for VNA+dVH+Vxc...
<Cluster>  Solving the eigenvalue problem...
    1    C  MulP   2.0162  2.0162 sum   4.0324
    2    C  MulP   2.0174  2.0174 sum   4.0349
    3    H  MulP   0.4846  0.4846 sum   0.9691
    4    H  MulP   0.4818  0.4818 sum   0.9635
 Sum of MulP: up   =     5.00000 down          =     5.00000
              total=    10.00000 ideal(neutral)=    10.00000
<DFT>  Total Spin Moment (muB) =  0.000000000000
<DFT>  Mixing_weight= 0.400000000000
<DFT>  Uele   =   -4.231974194009  dUele     =   0.000000002681
<DFT>  NormRD =    0.000000002583  Criterion =   0.000000010000
[...]
  Force calculation #4
  Force calculation #5
<MD=99>  Total Energy
  Force calculation #6
  Force calculation #7

*******************************************************
                  Dipole moment (Debye)                 
*******************************************************

 Absolute D        0.01906887

                      Dx                Dy                Dz
 Total              0.01555355        0.00680733        0.00868153
 Core              -0.07793531       -0.06710170       -0.06905559
 Electron           0.09348886        0.07390903        0.07773712
 Back ground        0.00000000        0.00000000       -0.00000000

*******************************************************
                Total Energy (Hartree) at MD =99        
*******************************************************

  Uele  =      -4.189272689068

  Ukin  =       8.896468630605
  UH0   =     -22.234633803291
  UH1   =       0.060691231660
  Una   =      -6.898450359237
  Unl   =      -0.786938691263
  Uxc0  =      -2.146691431304
  Uxc1  =      -2.146691431304
  Ucore =      12.586215815072
  Uhub  =       0.000000000000
  Ucs   =       0.000000000000
  Uzs   =       0.000000000000
  Uzo   =       0.000000000000
  Uef   =       0.000000000000
  UvdW  =       0.000000000000
  Uch   =       0.000000000000
  Utot  =     -12.670030039063

  UpV   =       0.000000000000
  Enpy  =     -12.670030039063
  Note:

  Uele:   band energy
  Ukin:   kinetic energy
  UH0:    electric part of screened Coulomb energy
  UH1:    difference electron-electron Coulomb energy
  Una:    neutral atom potential energy
  Unl:    non-local potential energy
  Uxc0:   exchange-correlation energy for alpha spin
  Uxc1:   exchange-correlation energy for beta spin
  Ucore:  core-core Coulomb energy
  Uhub:   LDA+U energy
  Ucs:    constraint energy for spin orientation
  Uzs:    Zeeman term for spin magnetic moment
  Uzo:    Zeeman term for orbital magnetic moment
  Uef:    electric energy by electric field
  UvdW:   semi-empirical vdW energy 
  Uch:    penalty term to create a core hole
  UpV:    pressure times volume
  Enpy:   Enthalpy = Utot + UpV
  (see also PRB 72, 045121(2005) for the energy contributions)


*******************************************************
           Computational times (s) at MD =99            
*******************************************************

  DFT in total      =    3.12496

  Set_OLP_Kin       =    0.08561
  Set_Nonlocal      =    0.11159
  Set_ProExpn_VNA   =    0.30371
  Set_Hamiltonian   =    0.80460
  Poisson           =    0.41999
  diagonalization   =    0.08405
  Mixing_DM         =    0.00192
  Force             =    0.19694
  Total_Energy      =    0.07226
  Set_Aden_Grid     =    0.03969
  Set_Orbitals_Grid =    0.08873
  Set_Density_Grid  =    0.49627
  RestartFileDFT    =    0.38734
  Mulliken_Charge   =    0.00472
  FFT(2D)_Density   =    0.00000

*******************************************************
             MD or geometry opt. at MD =99              
*******************************************************


*******************************************************
        Analysis of neighbors and setting of grids        
*******************************************************


*******************************************************
  Allocation of atoms to proccesors at MD_iter=  100     
*******************************************************

 proc =   0  # of atoms=   1  estimated weight=         1.00000
 proc =   1  # of atoms=   1  estimated weight=         1.00000
 proc =   2  # of atoms=   1  estimated weight=         1.00000
 proc =   3  # of atoms=   1  estimated weight=         1.00000
 proc =   4  # of atoms=   0  estimated weight=         0.00000
 proc =   5  # of atoms=   0  estimated weight=         0.00000
 proc =   6  # of atoms=   0  estimated weight=         0.00000
 proc =   7  # of atoms=   0  estimated weight=         0.00000
 proc =   8  # of atoms=   0  estimated weight=         0.00000
 proc =   9  # of atoms=   0  estimated weight=         0.00000
 proc =  10  # of atoms=   0  estimated weight=         0.00000
 proc =  11  # of atoms=   0  estimated weight=         0.00000
 proc =  12  # of atoms=   0  estimated weight=         0.00000
 proc =  13  # of atoms=   0  estimated weight=         0.00000
 proc =  14  # of atoms=   0  estimated weight=         0.00000
 proc =  15  # of atoms=   0  estimated weight=         0.00000
 proc =  16  # of atoms=   0  estimated weight=         0.00000
 proc =  17  # of atoms=   0  estimated weight=         0.00000
 proc =  18  # of atoms=   0  estimated weight=         0.00000
 proc =  19  # of atoms=   0  estimated weight=         0.00000
 proc =  20  # of atoms=   0  estimated weight=         0.00000
 proc =  21  # of atoms=   0  estimated weight=         0.00000
 proc =  22  # of atoms=   0  estimated weight=         0.00000
 proc =  23  # of atoms=   0  estimated weight=         0.00000



TFNAN=      12   Average FNAN=   3.00000
TSNAN=       0   Average SNAN=   0.00000
<truncation> CpyCell= 2 ct_AN=   1 FNAN SNAN   3   0
<truncation> CpyCell= 2 ct_AN=   2 FNAN SNAN   3   0
<truncation> CpyCell= 2 ct_AN=   3 FNAN SNAN   3   0
<truncation> CpyCell= 2 ct_AN=   4 FNAN SNAN   3   0
<UCell_Box> Info. of cutoff energy and num. of grids
lattice vectors (bohr)
A  = 40.000000000000,  0.000000000000,  0.000000000000
B  =  0.000000000000, 30.000000000000,  0.000000000000
C  =  0.000000000000,  0.000000000000, 30.000000000000
reciprocal lattice vectors (bohr^-1)
RA =  0.157079632679,  0.000000000000,  0.000000000000
RB =  0.000000000000,  0.209439510239,  0.000000000000
RC =  0.000000000000,  0.000000000000,  0.209439510239
Required cutoff energy (Ryd) for 3D-grids = 250.0000
    Used cutoff energy (Ryd) for 3D-grids = 246.7401, 246.7401, 246.7401
Num. of grids of a-, b-, and c-axes = 200, 150, 150
Cell_Volume =  36000.000000000000 (Bohr^3)
GridVol     =      0.008000000000 (Bohr^3)
Cell vectors (bohr) of the grid cell (gtv)
  gtv_a =  0.200000000000,  0.000000000000,  0.000000000000
  gtv_b =  0.000000000000,  0.200000000000,  0.000000000000
  gtv_c =  0.000000000000,  0.000000000000,  0.200000000000
  |gtv_a| =  0.200000000000
  |gtv_b| =  0.200000000000
  |gtv_c| =  0.200000000000
Num. of grids overlapping with atom    1 = 113106
Num. of grids overlapping with atom    2 = 113083
Num. of grids overlapping with atom    3 = 113070
Num. of grids overlapping with atom    4 = 113033

*******************************************************
             SCF calculation at MD =100                
*******************************************************

<MD=100>  Calculation of the overlap matrix
<MD=100>  Calculation of the nonlocal matrix
<MD=100>  Calculation of the VNA projector matrix

******************* MD=100  SCF= 1 *******************
<Restart>  Found restart files
<Poisson>  Poisson's equation using FFT...
<Cluster>  Solving the eigenvalue problem...
    1    C  MulP   2.0193  2.0193 sum   4.0386
    2    C  MulP   2.0184  2.0184 sum   4.0368
    3    H  MulP   0.4802  0.4802 sum   0.9604
    4    H  MulP   0.4821  0.4821 sum   0.9643
 Sum of MulP: up   =     5.00000 down          =     5.00000
              total=    10.00000 ideal(neutral)=    10.00000
<DFT>  Total Spin Moment (muB) =  0.000000000000
<DFT>  Mixing_weight= 0.400000000000
<DFT>  Uele   =   -4.188589203443  dUele     =   1.000000000000
<DFT>  NormRD =    1.000000000000  Criterion =   0.000000010000

******************* MD=100  SCF= 2 *******************
<Poisson>  Poisson's equation using FFT...
<Set_Hamiltonian>  Hamiltonian matrix for VNA+dVH+Vxc...
<Cluster>  Solving the eigenvalue problem...
    1    C  MulP   2.0196  2.0196 sum   4.0391
    2    C  MulP   2.0183  2.0183 sum   4.0366
    3    H  MulP   0.4801  0.4801 sum   0.9602
    4    H  MulP   0.4820  0.4820 sum   0.9641
 Sum of MulP: up   =     5.00000 down          =     5.00000
              total=    10.00000 ideal(neutral)=    10.00000
<DFT>  Total Spin Moment (muB) =  0.000000000000
<DFT>  Mixing_weight= 0.400000000000
<DFT>  Uele   =   -4.189236680135  dUele     =   0.000647476692
<DFT>  NormRD =    0.000268524001  Criterion =   0.000000010000

******************* MD=100  SCF= 3 *******************
<Poisson>  Poisson's equation using FFT...
<Set_Hamiltonian>  Hamiltonian matrix for VNA+dVH+Vxc...
<Cluster>  Solving the eigenvalue problem...
    1    C  MulP   2.0193  2.0193 sum   4.0385
    2    C  MulP   2.0185  2.0185 sum   4.0370
    3    H  MulP   0.4802  0.4802 sum   0.9603
    4    H  MulP   0.4821  0.4821 sum   0.9641
 Sum of MulP: up   =     5.00000 down          =     5.00000
              total=    10.00000 ideal(neutral)=    10.00000
<DFT>  Total Spin Moment (muB) =  0.000000000000
<DFT>  Mixing_weight= 0.400000000000
<DFT>  Uele   =   -4.188925316272  dUele     =   0.000311363863
<DFT>  NormRD =    0.000123657217  Criterion =   0.000000010000

******************* MD=100  SCF= 4 *******************
<Poisson>  Poisson's equation using FFT...
<Set_Hamiltonian>  Hamiltonian matrix for VNA+dVH+Vxc...
<Cluster>  Solving the eigenvalue problem...
    1    C  MulP   2.0195  2.0195 sum   4.0389
    2    C  MulP   2.0183  2.0183 sum   4.0366
    3    H  MulP   0.4802  0.4802 sum   0.9603
    4    H  MulP   0.4821  0.4821 sum   0.9642
 Sum of MulP: up   =     5.00000 down          =     5.00000
              total=    10.00000 ideal(neutral)=    10.00000
<DFT>  Total Spin Moment (muB) =  0.000000000000
<DFT>  Mixing_weight= 0.400000000000
<DFT>  Uele   =   -4.188890412945  dUele     =   0.000034903327
<DFT>  NormRD =    0.000092124603  Criterion =   0.000000010000

******************* MD=100  SCF= 5 *******************
<Poisson>  Poisson's equation using FFT...
<Set_Hamiltonian>  Hamiltonian matrix for VNA+dVH+Vxc...
<Cluster>  Solving the eigenvalue problem...
    1    C  MulP   2.0194  2.0194 sum   4.0387
    2    C  MulP   2.0184  2.0184 sum   4.0368
    3    H  MulP   0.4802  0.4802 sum   0.9603
    4    H  MulP   0.4821  0.4821 sum   0.9642
 Sum of MulP: up   =     5.00000 down          =     5.00000
              total=    10.00000 ideal(neutral)=    10.00000
<DFT>  Total Spin Moment (muB) =  0.000000000000
<DFT>  Mixing_weight= 0.400000000000
<DFT>  Uele   =   -4.188857609835  dUele     =   0.000032803110
<DFT>  NormRD =    0.000019620223  Criterion =   0.000000010000

******************* MD=100  SCF= 6 *******************
<Poisson>  Poisson's equation using FFT...
<Set_Hamiltonian>  Hamiltonian matrix for VNA+dVH+Vxc...
<Cluster>  Solving the eigenvalue problem...
    1    C  MulP   2.0194  2.0194 sum   4.0387
    2    C  MulP   2.0184  2.0184 sum   4.0368
    3    H  MulP   0.4802  0.4802 sum   0.9603
    4    H  MulP   0.4821  0.4821 sum   0.9642
 Sum of MulP: up   =     5.00000 down          =     5.00000
              total=    10.00000 ideal(neutral)=    10.00000
<DFT>  Total Spin Moment (muB) =  0.000000000000
<DFT>  Mixing_weight= 0.400000000000
<DFT>  Uele   =   -4.188886381440  dUele     =   0.000028771605
<DFT>  NormRD =    0.000004703950  Criterion =   0.000000010000

******************* MD=100  SCF= 7 *******************
<Poisson>  Poisson's equation using FFT...
<Set_Hamiltonian>  Hamiltonian matrix for VNA+dVH+Vxc...
<Cluster>  Solving the eigenvalue problem...
    1    C  MulP   2.0194  2.0194 sum   4.0387
    2    C  MulP   2.0184  2.0184 sum   4.0368
    3    H  MulP   0.4802  0.4802 sum   0.9603
    4    H  MulP   0.4821  0.4821 sum   0.9642
 Sum of MulP: up   =     5.00000 down          =     5.00000
              total=    10.00000 ideal(neutral)=    10.00000
<DFT>  Total Spin Moment (muB) =  0.000000000000
<DFT>  Mixing_weight= 0.400000000000
<DFT>  Uele   =   -4.188877296081  dUele     =   0.000009085359
<DFT>  NormRD =    0.000000950769  Criterion =   0.000000010000

******************* MD=100  SCF= 8 *******************
<Poisson>  Poisson's equation using FFT...
<Set_Hamiltonian>  Hamiltonian matrix for VNA+dVH+Vxc...
<Cluster>  Solving the eigenvalue problem...
    1    C  MulP   2.0194  2.0194 sum   4.0387
    2    C  MulP   2.0184  2.0184 sum   4.0368
    3    H  MulP   0.4802  0.4802 sum   0.9603
    4    H  MulP   0.4821  0.4821 sum   0.9642
 Sum of MulP: up   =     5.00000 down          =     5.00000
              total=    10.00000 ideal(neutral)=    10.00000
<DFT>  Total Spin Moment (muB) =  0.000000000000
<DFT>  Mixing_weight= 0.400000000000
<DFT>  Uele   =   -4.188878557102  dUele     =   0.000001261021
<DFT>  NormRD =    0.000000086643  Criterion =   0.000000010000

******************* MD=100  SCF= 9 *******************
<Poisson>  Poisson's equation using FFT...
<Set_Hamiltonian>  Hamiltonian matrix for VNA+dVH+Vxc...
<Cluster>  Solving the eigenvalue problem...
    1    C  MulP   2.0194  2.0194 sum   4.0387
    2    C  MulP   2.0184  2.0184 sum   4.0368
    3    H  MulP   0.4802  0.4802 sum   0.9603
    4    H  MulP   0.4821  0.4821 sum   0.9642
 Sum of MulP: up   =     5.00000 down          =     5.00000
              total=    10.00000 ideal(neutral)=    10.00000
<DFT>  Total Spin Moment (muB) =  0.000000000000
<DFT>  Mixing_weight= 0.400000000000
<DFT>  Uele   =   -4.188878516245  dUele     =   0.000000040857
<DFT>  NormRD =    0.000000015921  Criterion =   0.000000010000

******************* MD=100  SCF=10 *******************
<Poisson>  Poisson's equation using FFT...
<Set_Hamiltonian>  Hamiltonian matrix for VNA+dVH+Vxc...
<Cluster>  Solving the eigenvalue problem...
    1    C  MulP   2.0194  2.0194 sum   4.0387
    2    C  MulP   2.0184  2.0184 sum   4.0368
    3    H  MulP   0.4802  0.4802 sum   0.9603
    4    H  MulP   0.4821  0.4821 sum   0.9642
 Sum of MulP: up   =     5.00000 down          =     5.00000
              total=    10.00000 ideal(neutral)=    10.00000
<DFT>  Total Spin Moment (muB) =  0.000000000000
<DFT>  Mixing_weight= 0.400000000000
<DFT>  Uele   =   -4.188878502159  dUele     =   0.000000014086
<DFT>  NormRD =    0.000000001835  Criterion =   0.000000010000

******************* MD=100  SCF=11 *******************
<Poisson>  Poisson's equation using FFT...
<Set_Hamiltonian>  Hamiltonian matrix for VNA+dVH+Vxc...
<Cluster>  Solving the eigenvalue problem...
    1    C  MulP   2.0194  2.0194 sum   4.0387
    2    C  MulP   2.0184  2.0184 sum   4.0368
    3    H  MulP   0.4802  0.4802 sum   0.9603
    4    H  MulP   0.4821  0.4821 sum   0.9642
 Sum of MulP: up   =     5.00000 down          =     5.00000
              total=    10.00000 ideal(neutral)=    10.00000
<DFT>  Total Spin Moment (muB) =  0.000000000000
<DFT>  Mixing_weight= 0.400000000000
<DFT>  Uele   =   -4.188878500590  dUele     =   0.000000001569
<DFT>  NormRD =    0.000000000287  Criterion =   0.000000010000
<MD=100>  Force calculation
  Force calculation #1
  Force calculation #2
  Force calculation #3
  Force calculation #4
  Force calculation #5
<MD=100>  Total Energy
  Force calculation #6
  Force calculation #7

*******************************************************
                  Dipole moment (Debye)                 
*******************************************************

 Absolute D        0.02189477

                      Dx                Dy                Dz
 Total              0.01489206        0.01096009        0.01172535
 Core              -0.07843655       -0.09777840       -0.09294291
 Electron           0.09332861        0.10873850        0.10466825
 Back ground        0.00000000        0.00000000       -0.00000000

*******************************************************
                Total Energy (Hartree) at MD =100        
*******************************************************

  Uele  =      -4.188878500590

  Ukin  =       8.896302570904
  UH0   =     -22.233119904044
  UH1   =       0.060708053341
  Una   =      -6.897531592194
  Unl   =      -0.787491680253
  Uxc0  =      -2.146600435458
  Uxc1  =      -2.146600435458
  Ucore =      12.584261486541
  Uhub  =       0.000000000000
  Ucs   =       0.000000000000
  Uzs   =       0.000000000000
  Uzo   =       0.000000000000
  Uef   =       0.000000000000
  UvdW  =       0.000000000000
  Uch   =       0.000000000000
  Utot  =     -12.670071936621

  UpV   =       0.000000000000
  Enpy  =     -12.670071936621
  Note:

  Uele:   band energy
  Ukin:   kinetic energy
  UH0:    electric part of screened Coulomb energy
  UH1:    difference electron-electron Coulomb energy
  Una:    neutral atom potential energy
  Unl:    non-local potential energy
  Uxc0:   exchange-correlation energy for alpha spin
  Uxc1:   exchange-correlation energy for beta spin
  Ucore:  core-core Coulomb energy
  Uhub:   LDA+U energy
  Ucs:    constraint energy for spin orientation
  Uzs:    Zeeman term for spin magnetic moment
  Uzo:    Zeeman term for orbital magnetic moment
  Uef:    electric energy by electric field
  UvdW:   semi-empirical vdW energy 
  Uch:    penalty term to create a core hole
  UpV:    pressure times volume
  Enpy:   Enthalpy = Utot + UpV
  (see also PRB 72, 045121(2005) for the energy contributions)


*******************************************************
           Computational times (s) at MD =100            
*******************************************************

  DFT in total      =    3.15153

  Set_OLP_Kin       =    0.08600
  Set_Nonlocal      =    0.10687
  Set_ProExpn_VNA   =    0.30426
  Set_Hamiltonian   =    0.84990
  Poisson           =    0.42519
  diagonalization   =    0.08715
  Mixing_DM         =    0.00169
  Force             =    0.20372
  Total_Energy      =    0.07134
  Set_Aden_Grid     =    0.04006
  Set_Orbitals_Grid =    0.08928
  Set_Density_Grid  =    0.51608
  RestartFileDFT    =    0.33681
  Mulliken_Charge   =    0.00502
  FFT(2D)_Density   =    0.00000

*******************************************************
             MD or geometry opt. at MD =100              
*******************************************************


outputting data on grids to files...


***********************************************************
***********************************************************
               Computational Time (second)                 
***********************************************************
***********************************************************

                               Min_ID   Min_Time       Max_ID   Max_Time
   Total Computational Time =     5      340.518          0      340.525
   readfile                 =    21        3.073         14        3.078
   truncation               =    13       16.575          0       18.765
   MD_pac                   =     0        0.656         23        1.229
   OutData                  =     7        0.000          0        0.003
   DFT                      =     0      317.266         13      318.994

*** In DFT ***

   Set_OLP_Kin              =    19        4.787          1       11.846
   Set_Nonlocal             =     1        8.117         19       15.180
   Set_ProExpn_VNA          =    20       27.576          1       30.713
   Set_Hamiltonian          =     5       85.145         15       85.149
   Poisson                  =     0       42.529         11       42.551
   Diagonalization          =    22        7.994          5        8.023
   Mixing_DM                =     4        0.173         22        0.174
   Force                    =    23       20.457          0       20.457
   Total_Energy             =    23        6.892          0        7.349
   Set_Aden_Grid            =    22        1.645         14        6.754
   Set_Orbitals_Grid        =    12        0.000          1       10.965
   Set_Density_Grid         =    19        2.885          1       53.329
   RestartFileDFT           =     2       26.904         23       39.549
   Mulliken_Charge          =    10        0.556         19        0.557
   FFT(2D)_Density          =     0        0.000          0        0.000
   Others                   =     1        4.548         20       72.802

The calculation was normally finished.
