 vasp.4.6.35 3Apr08 complex 
 executed on             LinuxIFC date 2012.08.31  09:12:20
 running on   12 nodes
 distr:  one band on    3 nodes,    4 groups


--------------------------------------------------------------------------------------------------------


 INCAR:
 POTCAR:   PAW_PBE Zn 06Sep2000                   
 POTCAR:   PAW_PBE Zn 06Sep2000                   
   VRHFIN =Zn: d10 p2                                                           
   LEXCH  = PE                                                                  
   EATOM  =  1749.0928 eV,  128.5547 Ry                                         
                                                                                
   TITEL  = PAW_PBE Zn 06Sep2000                                                
   LULTRA =        F    use ultrasoft PP ?                                      
   IUNSCR =        1    unscreen: 0-lin 1-nonlin 2-no                           
   RPACOR =    2.000    partial core radius                                     
   POMASS =   65.390; ZVAL   =   12.000    mass and valenz                      
   RCORE  =    2.300    outmost cutoff radius                                   
   RWIGS  =    2.400; RWIGS  =    1.270    wigner-seitz radius (au A)           
   ENMAX  =  276.727; ENMIN  =  207.545 eV                                      
   RCLOC  =    1.828    cutoff for local pot                                    
   LCOR   =        T    correct aug charges                                     
   LPAW   =        T    paw PP                                                  
   EAUG   =  575.892                                                            
   DEXC   =    -.003                                                            
   RMAX   =    2.772    core radius for proj-oper                               
   RAUG   =    1.300    factor for augmentation sphere                          
   RDEP   =    2.324    radius for radial grids                                 
   QCUT   =   -4.510; QGAM   =    9.020    optimization parameters              
                                                                                
   Description                                                                  
     l     E      TYP  RCUT    TYP  RCUT                                        
     2   .000     23  2.300                                                     
     2   .000     23  2.300                                                     
     0   .000     23  2.300                                                     
     0   .000     23  2.300                                                     
     1  -.200     23  2.300                                                     
     1   .000     23  2.300                                                     
     3   .000      7   .000                                                     
  local pseudopotential read in
  partial core-charges read in
  atomic valenz-charges read in
  non local Contribution for L=           2  read in
    real space projection operators read in
  non local Contribution for L=           2  read in
    real space projection operators read in
  non local Contribution for L=           0  read in
    real space projection operators read in
  non local Contribution for L=           0  read in
    real space projection operators read in
  non local Contribution for L=           1  read in
    real space projection operators read in
  non local Contribution for L=           1  read in
    real space projection operators read in
    PAW grid and wavefunctions read in
 
   number of l-projection  operators is LMAX  =           6
   number of lm-projection operators is LMMAX =          18
 
 PAW_PBE Zn 06Sep2000                   :
 energy of atom  1       EATOM=-1749.0928
 kinetic energy error for atom=    0.0136 (will be added to EATOM!!)
 
 EXHCAR: internal setup
 exchange correlation table for  LEXCH =        8
   RHO(1)=    0.500       N(1)  =     2000
   RHO(2)=  100.500       N(2)  =     4000
 
 POSCAR: ZnZn/117 - (A3) - HCP [A2] A3 (117)  (ht
  positions in direct lattice
  No initial velocities read in
 


--------------------------------------------------------------------------------------------------------


 ion  position               nearest neighbor table
   1  0.000  0.000  0.000-   2 2.75   2 2.75   2 2.75   2 2.75   2 2.75   2 2.75
   2  0.333  0.667  0.500-   1 2.75   1 2.75   1 2.75   1 2.75   1 2.75   1 2.75
 
  LATTYP: Found a hexagonal cell.
 ALAT       =     2.7008562296
 C/A-ratio  =     1.6733763370
  
  Lattice vectors:
  
 A1 = (   1.3504281148,  -2.3390101068,   0.0000000000)
 A2 = (   1.3504281148,   2.3390101068,   0.0000000000)
 A3 = (   0.0000000000,   0.0000000000,   4.5195489043)
 Subroutine PRICEL returns:
 Original cell was already a primitive cell.
 

Analysis of symmetry for initial positions (statically):

 Routine SETGRP: Setting up the symmetry group for a 
 hexagonal supercell.


 Subroutine GETGRP returns: Found 24 space group operations
 (whereof 12 operations were pure point group operations)
 out of a pool of 24 trial point group operations.


The static configuration has the point symmetry D_3h.
 The point group associated with its full space group is D_6h.

Analysis of symmetry for dynamics (positions and initial velocities):

 Subroutine DYNSYM returns: Found 24 space group operations
 (whereof 12 operations were pure point group operations)
 out of a pool of 24 trial space group operations
 (whereof 12 operations were pure point group operations)
 and found also     1 'primitive' translations


The dynamic configuration has the point symmetry D_3h.
 The point group associated with its full space group is D_6h.
 
 
 KPOINTS: KPOINTS File, automatically generated   

Automatic generation of k-mesh.
 
 Subroutine IBZKPT returns following result:
 ===========================================
 
 Found    972 irreducible k-points:
 
 Following reciprocal coordinates:
            Coordinates               Weight
  0.000000  0.000000  0.000000      1.000000
  0.030303  0.000000  0.000000      6.000000
  0.060606  0.000000  0.000000      6.000000
  0.090909  0.000000  0.000000      6.000000
  0.121212  0.000000  0.000000      6.000000
  0.151515  0.000000  0.000000      6.000000
  0.181818  0.000000  0.000000      6.000000
  0.212121  0.000000  0.000000      6.000000
  0.242424  0.000000  0.000000      6.000000
  0.272727  0.000000  0.000000      6.000000
  0.303030  0.000000  0.000000      6.000000
  0.333333  0.000000  0.000000      6.000000
  0.363636  0.000000  0.000000      6.000000
  0.393939  0.000000  0.000000      6.000000
  0.424242  0.000000  0.000000      6.000000
  0.454545  0.000000  0.000000      6.000000
  0.484848  0.000000  0.000000      6.000000
  0.030303  0.030303  0.000000      6.000000
  0.060606  0.030303  0.000000     12.000000
  0.090909  0.030303  0.000000     12.000000
  0.121212  0.030303  0.000000     12.000000
  0.151515  0.030303  0.000000     12.000000
  0.181818  0.030303  0.000000     12.000000
  0.212121  0.030303  0.000000     12.000000
  0.242424  0.030303  0.000000     12.000000
  0.272727  0.030303  0.000000     12.000000
  0.303030  0.030303  0.000000     12.000000
  0.333333  0.030303  0.000000     12.000000
  0.363636  0.030303  0.000000     12.000000
  0.393939  0.030303  0.000000     12.000000
  0.424242  0.030303  0.000000     12.000000
  0.454545  0.030303  0.000000     12.000000
  0.484848  0.030303  0.000000      6.000000
  0.060606  0.060606  0.000000      6.000000
  0.090909  0.060606  0.000000     12.000000
  0.121212  0.060606  0.000000     12.000000
  0.151515  0.060606  0.000000     12.000000
  0.181818  0.060606  0.000000     12.000000
  0.212121  0.060606  0.000000     12.000000
  0.242424  0.060606  0.000000     12.000000
  0.272727  0.060606  0.000000     12.000000
  0.303030  0.060606  0.000000     12.000000
  0.333333  0.060606  0.000000     12.000000
  0.363636  0.060606  0.000000     12.000000
  0.393939  0.060606  0.000000     12.000000
  0.424242  0.060606  0.000000     12.000000
  0.454545  0.060606  0.000000     12.000000
  0.090909  0.090909  0.000000      6.000000
  0.121212  0.090909  0.000000     12.000000
  0.151515  0.090909  0.000000     12.000000
  0.181818  0.090909  0.000000     12.000000
  0.212121  0.090909  0.000000     12.000000
  0.242424  0.090909  0.000000     12.000000
  0.272727  0.090909  0.000000     12.000000
  0.303030  0.090909  0.000000     12.000000
  0.333333  0.090909  0.000000     12.000000
  0.363636  0.090909  0.000000     12.000000
  0.393939  0.090909  0.000000     12.000000
  0.424242  0.090909  0.000000     12.000000
  0.454545  0.090909  0.000000      6.000000
  0.121212  0.121212  0.000000      6.000000
  0.151515  0.121212  0.000000     12.000000
  0.181818  0.121212  0.000000     12.000000
  0.212121  0.121212  0.000000     12.000000
  0.242424  0.121212  0.000000     12.000000
  0.272727  0.121212  0.000000     12.000000
  0.303030  0.121212  0.000000     12.000000
  0.333333  0.121212  0.000000     12.000000
  0.363636  0.121212  0.000000     12.000000
  0.393939  0.121212  0.000000     12.000000
  0.424242  0.121212  0.000000     12.000000
  0.151515  0.151515  0.000000      6.000000
  0.181818  0.151515  0.000000     12.000000
  0.212121  0.151515  0.000000     12.000000
  0.242424  0.151515  0.000000     12.000000
  0.272727  0.151515  0.000000     12.000000
  0.303030  0.151515  0.000000     12.000000
  0.333333  0.151515  0.000000     12.000000
  0.363636  0.151515  0.000000     12.000000
  0.393939  0.151515  0.000000     12.000000
  0.424242  0.151515  0.000000      6.000000
  0.181818  0.181818  0.000000      6.000000
  0.212121  0.181818  0.000000     12.000000
  0.242424  0.181818  0.000000     12.000000
  0.272727  0.181818  0.000000     12.000000
  0.303030  0.181818  0.000000     12.000000
  0.333333  0.181818  0.000000     12.000000
  0.363636  0.181818  0.000000     12.000000
  0.393939  0.181818  0.000000     12.000000
  0.212121  0.212121  0.000000      6.000000
  0.242424  0.212121  0.000000     12.000000
  0.272727  0.212121  0.000000     12.000000
  0.303030  0.212121  0.000000     12.000000
  0.333333  0.212121  0.000000     12.000000
  0.363636  0.212121  0.000000     12.000000
  0.393939  0.212121  0.000000      6.000000
  0.242424  0.242424  0.000000      6.000000
  0.272727  0.242424  0.000000     12.000000
  0.303030  0.242424  0.000000     12.000000
  0.333333  0.242424  0.000000     12.000000
  0.363636  0.242424  0.000000     12.000000
  0.272727  0.272727  0.000000      6.000000
  0.303030  0.272727  0.000000     12.000000
  0.333333  0.272727  0.000000     12.000000
  0.363636  0.272727  0.000000      6.000000
  0.303030  0.303030  0.000000      6.000000
  0.333333  0.303030  0.000000     12.000000
  0.333333  0.333333  0.000000      2.000000
  0.000000  0.000000  0.058824      2.000000
  0.030303  0.000000  0.058824     12.000000
  0.060606  0.000000  0.058824     12.000000
  0.090909  0.000000  0.058824     12.000000
  0.121212  0.000000  0.058824     12.000000
  0.151515  0.000000  0.058824     12.000000
  0.181818  0.000000  0.058824     12.000000
  0.212121  0.000000  0.058824     12.000000
  0.242424  0.000000  0.058824     12.000000
  0.272727  0.000000  0.058824     12.000000
  0.303030  0.000000  0.058824     12.000000
  0.333333  0.000000  0.058824     12.000000
  0.363636  0.000000  0.058824     12.000000
  0.393939  0.000000  0.058824     12.000000
  0.424242  0.000000  0.058824     12.000000
  0.454545  0.000000  0.058824     12.000000
  0.484848  0.000000  0.058824     12.000000
  0.030303  0.030303  0.058824     12.000000
  0.060606  0.030303  0.058824     24.000000
  0.090909  0.030303  0.058824     24.000000
  0.121212  0.030303  0.058824     24.000000
  0.151515  0.030303  0.058824     24.000000
  0.181818  0.030303  0.058824     24.000000
  0.212121  0.030303  0.058824     24.000000
  0.242424  0.030303  0.058824     24.000000
  0.272727  0.030303  0.058824     24.000000
  0.303030  0.030303  0.058824     24.000000
  0.333333  0.030303  0.058824     24.000000
  0.363636  0.030303  0.058824     24.000000
  0.393939  0.030303  0.058824     24.000000
  0.424242  0.030303  0.058824     24.000000
  0.454545  0.030303  0.058824     24.000000
  0.484848  0.030303  0.058824     12.000000
  0.060606  0.060606  0.058824     12.000000
  0.090909  0.060606  0.058824     24.000000
  0.121212  0.060606  0.058824     24.000000
  0.151515  0.060606  0.058824     24.000000
  0.181818  0.060606  0.058824     24.000000
  0.212121  0.060606  0.058824     24.000000
  0.242424  0.060606  0.058824     24.000000
  0.272727  0.060606  0.058824     24.000000
  0.303030  0.060606  0.058824     24.000000
  0.333333  0.060606  0.058824     24.000000
  0.363636  0.060606  0.058824     24.000000
  0.393939  0.060606  0.058824     24.000000
  0.424242  0.060606  0.058824     24.000000
  0.454545  0.060606  0.058824     24.000000
  0.090909  0.090909  0.058824     12.000000
  0.121212  0.090909  0.058824     24.000000
  0.151515  0.090909  0.058824     24.000000
  0.181818  0.090909  0.058824     24.000000
  0.212121  0.090909  0.058824     24.000000
  0.242424  0.090909  0.058824     24.000000
  0.272727  0.090909  0.058824     24.000000
  0.303030  0.090909  0.058824     24.000000
  0.333333  0.090909  0.058824     24.000000
  0.363636  0.090909  0.058824     24.000000
  0.393939  0.090909  0.058824     24.000000
  0.424242  0.090909  0.058824     24.000000
  0.454545  0.090909  0.058824     12.000000
  0.121212  0.121212  0.058824     12.000000
  0.151515  0.121212  0.058824     24.000000
  0.181818  0.121212  0.058824     24.000000
  0.212121  0.121212  0.058824     24.000000
  0.242424  0.121212  0.058824     24.000000
  0.272727  0.121212  0.058824     24.000000
  0.303030  0.121212  0.058824     24.000000
  0.333333  0.121212  0.058824     24.000000
  0.363636  0.121212  0.058824     24.000000
  0.393939  0.121212  0.058824     24.000000
  0.424242  0.121212  0.058824     24.000000
  0.151515  0.151515  0.058824     12.000000
  0.181818  0.151515  0.058824     24.000000
  0.212121  0.151515  0.058824     24.000000
  0.242424  0.151515  0.058824     24.000000
  0.272727  0.151515  0.058824     24.000000
  0.303030  0.151515  0.058824     24.000000
  0.333333  0.151515  0.058824     24.000000
  0.363636  0.151515  0.058824     24.000000
  0.393939  0.151515  0.058824     24.000000
  0.424242  0.151515  0.058824     12.000000
  0.181818  0.181818  0.058824     12.000000
  0.212121  0.181818  0.058824     24.000000
  0.242424  0.181818  0.058824     24.000000
  0.272727  0.181818  0.058824     24.000000
  0.303030  0.181818  0.058824     24.000000
  0.333333  0.181818  0.058824     24.000000
  0.363636  0.181818  0.058824     24.000000
  0.393939  0.181818  0.058824     24.000000
  0.212121  0.212121  0.058824     12.000000
  0.242424  0.212121  0.058824     24.000000
  0.272727  0.212121  0.058824     24.000000
  0.303030  0.212121  0.058824     24.000000
  0.333333  0.212121  0.058824     24.000000
  0.363636  0.212121  0.058824     24.000000
  0.393939  0.212121  0.058824     12.000000
  0.242424  0.242424  0.058824     12.000000
  0.272727  0.242424  0.058824     24.000000
  0.303030  0.242424  0.058824     24.000000
  0.333333  0.242424  0.058824     24.000000
  0.363636  0.242424  0.058824     24.000000
  0.272727  0.272727  0.058824     12.000000
  0.303030  0.272727  0.058824     24.000000
  0.333333  0.272727  0.058824     24.000000
  0.363636  0.272727  0.058824     12.000000
  0.303030  0.303030  0.058824     12.000000
  0.333333  0.303030  0.058824     24.000000
  0.333333  0.333333  0.058824      4.000000
  0.000000  0.000000  0.117647      2.000000
  0.030303  0.000000  0.117647     12.000000
  0.060606  0.000000  0.117647     12.000000
  0.090909  0.000000  0.117647     12.000000
  0.121212  0.000000  0.117647     12.000000
  0.151515  0.000000  0.117647     12.000000
  0.181818  0.000000  0.117647     12.000000
  0.212121  0.000000  0.117647     12.000000
  0.242424  0.000000  0.117647     12.000000
  0.272727  0.000000  0.117647     12.000000
  0.303030  0.000000  0.117647     12.000000
  0.333333  0.000000  0.117647     12.000000
  0.363636  0.000000  0.117647     12.000000
  0.393939  0.000000  0.117647     12.000000
  0.424242  0.000000  0.117647     12.000000
  0.454545  0.000000  0.117647     12.000000
  0.484848  0.000000  0.117647     12.000000
  0.030303  0.030303  0.117647     12.000000
  0.060606  0.030303  0.117647     24.000000
  0.090909  0.030303  0.117647     24.000000
  0.121212  0.030303  0.117647     24.000000
  0.151515  0.030303  0.117647     24.000000
  0.181818  0.030303  0.117647     24.000000
  0.212121  0.030303  0.117647     24.000000
  0.242424  0.030303  0.117647     24.000000
  0.272727  0.030303  0.117647     24.000000
  0.303030  0.030303  0.117647     24.000000
  0.333333  0.030303  0.117647     24.000000
  0.363636  0.030303  0.117647     24.000000
  0.393939  0.030303  0.117647     24.000000
  0.424242  0.030303  0.117647     24.000000
  0.454545  0.030303  0.117647     24.000000
  0.484848  0.030303  0.117647     12.000000
  0.060606  0.060606  0.117647     12.000000
  0.090909  0.060606  0.117647     24.000000
  0.121212  0.060606  0.117647     24.000000
  0.151515  0.060606  0.117647     24.000000
  0.181818  0.060606  0.117647     24.000000
  0.212121  0.060606  0.117647     24.000000
  0.242424  0.060606  0.117647     24.000000
  0.272727  0.060606  0.117647     24.000000
  0.303030  0.060606  0.117647     24.000000
  0.333333  0.060606  0.117647     24.000000
  0.363636  0.060606  0.117647     24.000000
  0.393939  0.060606  0.117647     24.000000
  0.424242  0.060606  0.117647     24.000000
  0.454545  0.060606  0.117647     24.000000
  0.090909  0.090909  0.117647     12.000000
  0.121212  0.090909  0.117647     24.000000
  0.151515  0.090909  0.117647     24.000000
  0.181818  0.090909  0.117647     24.000000
  0.212121  0.090909  0.117647     24.000000
  0.242424  0.090909  0.117647     24.000000
  0.272727  0.090909  0.117647     24.000000
  0.303030  0.090909  0.117647     24.000000
  0.333333  0.090909  0.117647     24.000000
  0.363636  0.090909  0.117647     24.000000
  0.393939  0.090909  0.117647     24.000000
  0.424242  0.090909  0.117647     24.000000
  0.454545  0.090909  0.117647     12.000000
  0.121212  0.121212  0.117647     12.000000
  0.151515  0.121212  0.117647     24.000000
  0.181818  0.121212  0.117647     24.000000
  0.212121  0.121212  0.117647     24.000000
  0.242424  0.121212  0.117647     24.000000
  0.272727  0.121212  0.117647     24.000000
  0.303030  0.121212  0.117647     24.000000
  0.333333  0.121212  0.117647     24.000000
  0.363636  0.121212  0.117647     24.000000
  0.393939  0.121212  0.117647     24.000000
  0.424242  0.121212  0.117647     24.000000
  0.151515  0.151515  0.117647     12.000000
  0.181818  0.151515  0.117647     24.000000
  0.212121  0.151515  0.117647     24.000000
  0.242424  0.151515  0.117647     24.000000
  0.272727  0.151515  0.117647     24.000000
  0.303030  0.151515  0.117647     24.000000
  0.333333  0.151515  0.117647     24.000000
  0.363636  0.151515  0.117647     24.000000
  0.393939  0.151515  0.117647     24.000000
  0.424242  0.151515  0.117647     12.000000
  0.181818  0.181818  0.117647     12.000000
  0.212121  0.181818  0.117647     24.000000
  0.242424  0.181818  0.117647     24.000000
  0.272727  0.181818  0.117647     24.000000
  0.303030  0.181818  0.117647     24.000000
  0.333333  0.181818  0.117647     24.000000
  0.363636  0.181818  0.117647     24.000000
  0.393939  0.181818  0.117647     24.000000
  0.212121  0.212121  0.117647     12.000000
  0.242424  0.212121  0.117647     24.000000
  0.272727  0.212121  0.117647     24.000000
  0.303030  0.212121  0.117647     24.000000
  0.333333  0.212121  0.117647     24.000000
  0.363636  0.212121  0.117647     24.000000
  0.393939  0.212121  0.117647     12.000000
  0.242424  0.242424  0.117647     12.000000
  0.272727  0.242424  0.117647     24.000000
  0.303030  0.242424  0.117647     24.000000
  0.333333  0.242424  0.117647     24.000000
  0.363636  0.242424  0.117647     24.000000
  0.272727  0.272727  0.117647     12.000000
  0.303030  0.272727  0.117647     24.000000
  0.333333  0.272727  0.117647     24.000000
  0.363636  0.272727  0.117647     12.000000
  0.303030  0.303030  0.117647     12.000000
  0.333333  0.303030  0.117647     24.000000
  0.333333  0.333333  0.117647      4.000000
  0.000000  0.000000  0.176471      2.000000
  0.030303  0.000000  0.176471     12.000000
  0.060606  0.000000  0.176471     12.000000
  0.090909  0.000000  0.176471     12.000000
  0.121212  0.000000  0.176471     12.000000
  0.151515  0.000000  0.176471     12.000000
  0.181818  0.000000  0.176471     12.000000
  0.212121  0.000000  0.176471     12.000000
  0.242424  0.000000  0.176471     12.000000
  0.272727  0.000000  0.176471     12.000000
  0.303030  0.000000  0.176471     12.000000
  0.333333  0.000000  0.176471     12.000000
  0.363636  0.000000  0.176471     12.000000
  0.393939  0.000000  0.176471     12.000000
  0.424242  0.000000  0.176471     12.000000
  0.454545  0.000000  0.176471     12.000000
  0.484848  0.000000  0.176471     12.000000
  0.030303  0.030303  0.176471     12.000000
  0.060606  0.030303  0.176471     24.000000
  0.090909  0.030303  0.176471     24.000000
  0.121212  0.030303  0.176471     24.000000
  0.151515  0.030303  0.176471     24.000000
  0.181818  0.030303  0.176471     24.000000
  0.212121  0.030303  0.176471     24.000000
  0.242424  0.030303  0.176471     24.000000
  0.272727  0.030303  0.176471     24.000000
  0.303030  0.030303  0.176471     24.000000
  0.333333  0.030303  0.176471     24.000000
  0.363636  0.030303  0.176471     24.000000
  0.393939  0.030303  0.176471     24.000000
  0.424242  0.030303  0.176471     24.000000
  0.454545  0.030303  0.176471     24.000000
  0.484848  0.030303  0.176471     12.000000
  0.060606  0.060606  0.176471     12.000000
  0.090909  0.060606  0.176471     24.000000
  0.121212  0.060606  0.176471     24.000000
  0.151515  0.060606  0.176471     24.000000
  0.181818  0.060606  0.176471     24.000000
  0.212121  0.060606  0.176471     24.000000
  0.242424  0.060606  0.176471     24.000000
  0.272727  0.060606  0.176471     24.000000
  0.303030  0.060606  0.176471     24.000000
  0.333333  0.060606  0.176471     24.000000
  0.363636  0.060606  0.176471     24.000000
  0.393939  0.060606  0.176471     24.000000
  0.424242  0.060606  0.176471     24.000000
  0.454545  0.060606  0.176471     24.000000
  0.090909  0.090909  0.176471     12.000000
  0.121212  0.090909  0.176471     24.000000
  0.151515  0.090909  0.176471     24.000000
  0.181818  0.090909  0.176471     24.000000
  0.212121  0.090909  0.176471     24.000000
  0.242424  0.090909  0.176471     24.000000
  0.272727  0.090909  0.176471     24.000000
  0.303030  0.090909  0.176471     24.000000
  0.333333  0.090909  0.176471     24.000000
  0.363636  0.090909  0.176471     24.000000
  0.393939  0.090909  0.176471     24.000000
  0.424242  0.090909  0.176471     24.000000
  0.454545  0.090909  0.176471     12.000000
  0.121212  0.121212  0.176471     12.000000
  0.151515  0.121212  0.176471     24.000000
  0.181818  0.121212  0.176471     24.000000
  0.212121  0.121212  0.176471     24.000000
  0.242424  0.121212  0.176471     24.000000
  0.272727  0.121212  0.176471     24.000000
  0.303030  0.121212  0.176471     24.000000
  0.333333  0.121212  0.176471     24.000000
  0.363636  0.121212  0.176471     24.000000
  0.393939  0.121212  0.176471     24.000000
  0.424242  0.121212  0.176471     24.000000
  0.151515  0.151515  0.176471     12.000000
  0.181818  0.151515  0.176471     24.000000
  0.212121  0.151515  0.176471     24.000000
  0.242424  0.151515  0.176471     24.000000
  0.272727  0.151515  0.176471     24.000000
  0.303030  0.151515  0.176471     24.000000
  0.333333  0.151515  0.176471     24.000000
  0.363636  0.151515  0.176471     24.000000
  0.393939  0.151515  0.176471     24.000000
  0.424242  0.151515  0.176471     12.000000
  0.181818  0.181818  0.176471     12.000000
  0.212121  0.181818  0.176471     24.000000
  0.242424  0.181818  0.176471     24.000000
  0.272727  0.181818  0.176471     24.000000
  0.303030  0.181818  0.176471     24.000000
  0.333333  0.181818  0.176471     24.000000
  0.363636  0.181818  0.176471     24.000000
  0.393939  0.181818  0.176471     24.000000
  0.212121  0.212121  0.176471     12.000000
  0.242424  0.212121  0.176471     24.000000
  0.272727  0.212121  0.176471     24.000000
  0.303030  0.212121  0.176471     24.000000
  0.333333  0.212121  0.176471     24.000000
  0.363636  0.212121  0.176471     24.000000
  0.393939  0.212121  0.176471     12.000000
  0.242424  0.242424  0.176471     12.000000
  0.272727  0.242424  0.176471     24.000000
  0.303030  0.242424  0.176471     24.000000
  0.333333  0.242424  0.176471     24.000000
  0.363636  0.242424  0.176471     24.000000
  0.272727  0.272727  0.176471     12.000000
  0.303030  0.272727  0.176471     24.000000
  0.333333  0.272727  0.176471     24.000000
  0.363636  0.272727  0.176471     12.000000
  0.303030  0.303030  0.176471     12.000000
  0.333333  0.303030  0.176471     24.000000
  0.333333  0.333333  0.176471      4.000000
  0.000000  0.000000  0.235294      2.000000
  0.030303  0.000000  0.235294     12.000000
  0.060606  0.000000  0.235294     12.000000
  0.090909  0.000000  0.235294     12.000000
  0.121212  0.000000  0.235294     12.000000
  0.151515  0.000000  0.235294     12.000000
  0.181818  0.000000  0.235294     12.000000
  0.212121  0.000000  0.235294     12.000000
  0.242424  0.000000  0.235294     12.000000
  0.272727  0.000000  0.235294     12.000000
  0.303030  0.000000  0.235294     12.000000
  0.333333  0.000000  0.235294     12.000000
  0.363636  0.000000  0.235294     12.000000
  0.393939  0.000000  0.235294     12.000000
  0.424242  0.000000  0.235294     12.000000
  0.454545  0.000000  0.235294     12.000000
  0.484848  0.000000  0.235294     12.000000
  0.030303  0.030303  0.235294     12.000000
  0.060606  0.030303  0.235294     24.000000
  0.090909  0.030303  0.235294     24.000000
  0.121212  0.030303  0.235294     24.000000
  0.151515  0.030303  0.235294     24.000000
  0.181818  0.030303  0.235294     24.000000
  0.212121  0.030303  0.235294     24.000000
  0.242424  0.030303  0.235294     24.000000
  0.272727  0.030303  0.235294     24.000000
  0.303030  0.030303  0.235294     24.000000
  0.333333  0.030303  0.235294     24.000000
  0.363636  0.030303  0.235294     24.000000
  0.393939  0.030303  0.235294     24.000000
  0.424242  0.030303  0.235294     24.000000
  0.454545  0.030303  0.235294     24.000000
  0.484848  0.030303  0.235294     12.000000
  0.060606  0.060606  0.235294     12.000000
  0.090909  0.060606  0.235294     24.000000
  0.121212  0.060606  0.235294     24.000000
  0.151515  0.060606  0.235294     24.000000
  0.181818  0.060606  0.235294     24.000000
  0.212121  0.060606  0.235294     24.000000
  0.242424  0.060606  0.235294     24.000000
  0.272727  0.060606  0.235294     24.000000
  0.303030  0.060606  0.235294     24.000000
  0.333333  0.060606  0.235294     24.000000
  0.363636  0.060606  0.235294     24.000000
  0.393939  0.060606  0.235294     24.000000
  0.424242  0.060606  0.235294     24.000000
  0.454545  0.060606  0.235294     24.000000
  0.090909  0.090909  0.235294     12.000000
  0.121212  0.090909  0.235294     24.000000
  0.151515  0.090909  0.235294     24.000000
  0.181818  0.090909  0.235294     24.000000
  0.212121  0.090909  0.235294     24.000000
  0.242424  0.090909  0.235294     24.000000
  0.272727  0.090909  0.235294     24.000000
  0.303030  0.090909  0.235294     24.000000
  0.333333  0.090909  0.235294     24.000000
  0.363636  0.090909  0.235294     24.000000
  0.393939  0.090909  0.235294     24.000000
  0.424242  0.090909  0.235294     24.000000
  0.454545  0.090909  0.235294     12.000000
  0.121212  0.121212  0.235294     12.000000
  0.151515  0.121212  0.235294     24.000000
  0.181818  0.121212  0.235294     24.000000
  0.212121  0.121212  0.235294     24.000000
  0.242424  0.121212  0.235294     24.000000
  0.272727  0.121212  0.235294     24.000000
  0.303030  0.121212  0.235294     24.000000
  0.333333  0.121212  0.235294     24.000000
  0.363636  0.121212  0.235294     24.000000
  0.393939  0.121212  0.235294     24.000000
  0.424242  0.121212  0.235294     24.000000
  0.151515  0.151515  0.235294     12.000000
  0.181818  0.151515  0.235294     24.000000
  0.212121  0.151515  0.235294     24.000000
  0.242424  0.151515  0.235294     24.000000
  0.272727  0.151515  0.235294     24.000000
  0.303030  0.151515  0.235294     24.000000
  0.333333  0.151515  0.235294     24.000000
  0.363636  0.151515  0.235294     24.000000
  0.393939  0.151515  0.235294     24.000000
  0.424242  0.151515  0.235294     12.000000
  0.181818  0.181818  0.235294     12.000000
  0.212121  0.181818  0.235294     24.000000
  0.242424  0.181818  0.235294     24.000000
  0.272727  0.181818  0.235294     24.000000
  0.303030  0.181818  0.235294     24.000000
  0.333333  0.181818  0.235294     24.000000
  0.363636  0.181818  0.235294     24.000000
  0.393939  0.181818  0.235294     24.000000
  0.212121  0.212121  0.235294     12.000000
  0.242424  0.212121  0.235294     24.000000
  0.272727  0.212121  0.235294     24.000000
  0.303030  0.212121  0.235294     24.000000
  0.333333  0.212121  0.235294     24.000000
  0.363636  0.212121  0.235294     24.000000
  0.393939  0.212121  0.235294     12.000000
  0.242424  0.242424  0.235294     12.000000
  0.272727  0.242424  0.235294     24.000000
  0.303030  0.242424  0.235294     24.000000
  0.333333  0.242424  0.235294     24.000000
  0.363636  0.242424  0.235294     24.000000
  0.272727  0.272727  0.235294     12.000000
  0.303030  0.272727  0.235294     24.000000
  0.333333  0.272727  0.235294     24.000000
  0.363636  0.272727  0.235294     12.000000
  0.303030  0.303030  0.235294     12.000000
  0.333333  0.303030  0.235294     24.000000
  0.333333  0.333333  0.235294      4.000000
  0.000000  0.000000  0.294118      2.000000
  0.030303  0.000000  0.294118     12.000000
  0.060606  0.000000  0.294118     12.000000
  0.090909  0.000000  0.294118     12.000000
  0.121212  0.000000  0.294118     12.000000
  0.151515  0.000000  0.294118     12.000000
  0.181818  0.000000  0.294118     12.000000
  0.212121  0.000000  0.294118     12.000000
  0.242424  0.000000  0.294118     12.000000
  0.272727  0.000000  0.294118     12.000000
  0.303030  0.000000  0.294118     12.000000
  0.333333  0.000000  0.294118     12.000000
  0.363636  0.000000  0.294118     12.000000
  0.393939  0.000000  0.294118     12.000000
  0.424242  0.000000  0.294118     12.000000
  0.454545  0.000000  0.294118     12.000000
  0.484848  0.000000  0.294118     12.000000
  0.030303  0.030303  0.294118     12.000000
  0.060606  0.030303  0.294118     24.000000
  0.090909  0.030303  0.294118     24.000000
  0.121212  0.030303  0.294118     24.000000
  0.151515  0.030303  0.294118     24.000000
  0.181818  0.030303  0.294118     24.000000
  0.212121  0.030303  0.294118     24.000000
  0.242424  0.030303  0.294118     24.000000
  0.272727  0.030303  0.294118     24.000000
  0.303030  0.030303  0.294118     24.000000
  0.333333  0.030303  0.294118     24.000000
  0.363636  0.030303  0.294118     24.000000
  0.393939  0.030303  0.294118     24.000000
  0.424242  0.030303  0.294118     24.000000
  0.454545  0.030303  0.294118     24.000000
  0.484848  0.030303  0.294118     12.000000
  0.060606  0.060606  0.294118     12.000000
  0.090909  0.060606  0.294118     24.000000
  0.121212  0.060606  0.294118     24.000000
  0.151515  0.060606  0.294118     24.000000
  0.181818  0.060606  0.294118     24.000000
  0.212121  0.060606  0.294118     24.000000
  0.242424  0.060606  0.294118     24.000000
  0.272727  0.060606  0.294118     24.000000
  0.303030  0.060606  0.294118     24.000000
  0.333333  0.060606  0.294118     24.000000
  0.363636  0.060606  0.294118     24.000000
  0.393939  0.060606  0.294118     24.000000
  0.424242  0.060606  0.294118     24.000000
  0.454545  0.060606  0.294118     24.000000
  0.090909  0.090909  0.294118     12.000000
  0.121212  0.090909  0.294118     24.000000
  0.151515  0.090909  0.294118     24.000000
  0.181818  0.090909  0.294118     24.000000
  0.212121  0.090909  0.294118     24.000000
  0.242424  0.090909  0.294118     24.000000
  0.272727  0.090909  0.294118     24.000000
  0.303030  0.090909  0.294118     24.000000
  0.333333  0.090909  0.294118     24.000000
  0.363636  0.090909  0.294118     24.000000
  0.393939  0.090909  0.294118     24.000000
  0.424242  0.090909  0.294118     24.000000
  0.454545  0.090909  0.294118     12.000000
  0.121212  0.121212  0.294118     12.000000
  0.151515  0.121212  0.294118     24.000000
  0.181818  0.121212  0.294118     24.000000
  0.212121  0.121212  0.294118     24.000000
  0.242424  0.121212  0.294118     24.000000
  0.272727  0.121212  0.294118     24.000000
  0.303030  0.121212  0.294118     24.000000
  0.333333  0.121212  0.294118     24.000000
  0.363636  0.121212  0.294118     24.000000
  0.393939  0.121212  0.294118     24.000000
  0.424242  0.121212  0.294118     24.000000
  0.151515  0.151515  0.294118     12.000000
  0.181818  0.151515  0.294118     24.000000
  0.212121  0.151515  0.294118     24.000000
  0.242424  0.151515  0.294118     24.000000
  0.272727  0.151515  0.294118     24.000000
  0.303030  0.151515  0.294118     24.000000
  0.333333  0.151515  0.294118     24.000000
  0.363636  0.151515  0.294118     24.000000
  0.393939  0.151515  0.294118     24.000000
  0.424242  0.151515  0.294118     12.000000
  0.181818  0.181818  0.294118     12.000000
  0.212121  0.181818  0.294118     24.000000
  0.242424  0.181818  0.294118     24.000000
  0.272727  0.181818  0.294118     24.000000
  0.303030  0.181818  0.294118     24.000000
  0.333333  0.181818  0.294118     24.000000
  0.363636  0.181818  0.294118     24.000000
  0.393939  0.181818  0.294118     24.000000
  0.212121  0.212121  0.294118     12.000000
  0.242424  0.212121  0.294118     24.000000
  0.272727  0.212121  0.294118     24.000000
  0.303030  0.212121  0.294118     24.000000
  0.333333  0.212121  0.294118     24.000000
  0.363636  0.212121  0.294118     24.000000
  0.393939  0.212121  0.294118     12.000000
  0.242424  0.242424  0.294118     12.000000
  0.272727  0.242424  0.294118     24.000000
  0.303030  0.242424  0.294118     24.000000
  0.333333  0.242424  0.294118     24.000000
  0.363636  0.242424  0.294118     24.000000
  0.272727  0.272727  0.294118     12.000000
  0.303030  0.272727  0.294118     24.000000
  0.333333  0.272727  0.294118     24.000000
  0.363636  0.272727  0.294118     12.000000
  0.303030  0.303030  0.294118     12.000000
  0.333333  0.303030  0.294118     24.000000
  0.333333  0.333333  0.294118      4.000000
  0.000000  0.000000  0.352941      2.000000
  0.030303  0.000000  0.352941     12.000000
  0.060606  0.000000  0.352941     12.000000
  0.090909  0.000000  0.352941     12.000000
  0.121212  0.000000  0.352941     12.000000
  0.151515  0.000000  0.352941     12.000000
  0.181818  0.000000  0.352941     12.000000
  0.212121  0.000000  0.352941     12.000000
  0.242424  0.000000  0.352941     12.000000
  0.272727  0.000000  0.352941     12.000000
  0.303030  0.000000  0.352941     12.000000
  0.333333  0.000000  0.352941     12.000000
  0.363636  0.000000  0.352941     12.000000
  0.393939  0.000000  0.352941     12.000000
  0.424242  0.000000  0.352941     12.000000
  0.454545  0.000000  0.352941     12.000000
  0.484848  0.000000  0.352941     12.000000
  0.030303  0.030303  0.352941     12.000000
  0.060606  0.030303  0.352941     24.000000
  0.090909  0.030303  0.352941     24.000000
  0.121212  0.030303  0.352941     24.000000
  0.151515  0.030303  0.352941     24.000000
  0.181818  0.030303  0.352941     24.000000
  0.212121  0.030303  0.352941     24.000000
  0.242424  0.030303  0.352941     24.000000
  0.272727  0.030303  0.352941     24.000000
  0.303030  0.030303  0.352941     24.000000
  0.333333  0.030303  0.352941     24.000000
  0.363636  0.030303  0.352941     24.000000
  0.393939  0.030303  0.352941     24.000000
  0.424242  0.030303  0.352941     24.000000
  0.454545  0.030303  0.352941     24.000000
  0.484848  0.030303  0.352941     12.000000
  0.060606  0.060606  0.352941     12.000000
  0.090909  0.060606  0.352941     24.000000
  0.121212  0.060606  0.352941     24.000000
  0.151515  0.060606  0.352941     24.000000
  0.181818  0.060606  0.352941     24.000000
  0.212121  0.060606  0.352941     24.000000
  0.242424  0.060606  0.352941     24.000000
  0.272727  0.060606  0.352941     24.000000
  0.303030  0.060606  0.352941     24.000000
  0.333333  0.060606  0.352941     24.000000
  0.363636  0.060606  0.352941     24.000000
  0.393939  0.060606  0.352941     24.000000
  0.424242  0.060606  0.352941     24.000000
  0.454545  0.060606  0.352941     24.000000
  0.090909  0.090909  0.352941     12.000000
  0.121212  0.090909  0.352941     24.000000
  0.151515  0.090909  0.352941     24.000000
  0.181818  0.090909  0.352941     24.000000
  0.212121  0.090909  0.352941     24.000000
  0.242424  0.090909  0.352941     24.000000
  0.272727  0.090909  0.352941     24.000000
  0.303030  0.090909  0.352941     24.000000
  0.333333  0.090909  0.352941     24.000000
  0.363636  0.090909  0.352941     24.000000
  0.393939  0.090909  0.352941     24.000000
  0.424242  0.090909  0.352941     24.000000
  0.454545  0.090909  0.352941     12.000000
  0.121212  0.121212  0.352941     12.000000
  0.151515  0.121212  0.352941     24.000000
  0.181818  0.121212  0.352941     24.000000
  0.212121  0.121212  0.352941     24.000000
  0.242424  0.121212  0.352941     24.000000
  0.272727  0.121212  0.352941     24.000000
  0.303030  0.121212  0.352941     24.000000
  0.333333  0.121212  0.352941     24.000000
  0.363636  0.121212  0.352941     24.000000
  0.393939  0.121212  0.352941     24.000000
  0.424242  0.121212  0.352941     24.000000
  0.151515  0.151515  0.352941     12.000000
  0.181818  0.151515  0.352941     24.000000
  0.212121  0.151515  0.352941     24.000000
  0.242424  0.151515  0.352941     24.000000
  0.272727  0.151515  0.352941     24.000000
  0.303030  0.151515  0.352941     24.000000
  0.333333  0.151515  0.352941     24.000000
  0.363636  0.151515  0.352941     24.000000
  0.393939  0.151515  0.352941     24.000000
  0.424242  0.151515  0.352941     12.000000
  0.181818  0.181818  0.352941     12.000000
  0.212121  0.181818  0.352941     24.000000
  0.242424  0.181818  0.352941     24.000000
  0.272727  0.181818  0.352941     24.000000
  0.303030  0.181818  0.352941     24.000000
  0.333333  0.181818  0.352941     24.000000
  0.363636  0.181818  0.352941     24.000000
  0.393939  0.181818  0.352941     24.000000
  0.212121  0.212121  0.352941     12.000000
  0.242424  0.212121  0.352941     24.000000
  0.272727  0.212121  0.352941     24.000000
  0.303030  0.212121  0.352941     24.000000
  0.333333  0.212121  0.352941     24.000000
  0.363636  0.212121  0.352941     24.000000
  0.393939  0.212121  0.352941     12.000000
  0.242424  0.242424  0.352941     12.000000
  0.272727  0.242424  0.352941     24.000000
  0.303030  0.242424  0.352941     24.000000
  0.333333  0.242424  0.352941     24.000000
  0.363636  0.242424  0.352941     24.000000
  0.272727  0.272727  0.352941     12.000000
  0.303030  0.272727  0.352941     24.000000
  0.333333  0.272727  0.352941     24.000000
  0.363636  0.272727  0.352941     12.000000
  0.303030  0.303030  0.352941     12.000000
  0.333333  0.303030  0.352941     24.000000
  0.333333  0.333333  0.352941      4.000000
  0.000000  0.000000  0.411765      2.000000
  0.030303  0.000000  0.411765     12.000000
  0.060606  0.000000  0.411765     12.000000
  0.090909  0.000000  0.411765     12.000000
  0.121212  0.000000  0.411765     12.000000
  0.151515  0.000000  0.411765     12.000000
  0.181818  0.000000  0.411765     12.000000
  0.212121  0.000000  0.411765     12.000000
  0.242424  0.000000  0.411765     12.000000
  0.272727  0.000000  0.411765     12.000000
  0.303030  0.000000  0.411765     12.000000
  0.333333  0.000000  0.411765     12.000000
  0.363636  0.000000  0.411765     12.000000
  0.393939  0.000000  0.411765     12.000000
  0.424242  0.000000  0.411765     12.000000
  0.454545  0.000000  0.411765     12.000000
  0.484848  0.000000  0.411765     12.000000
  0.030303  0.030303  0.411765     12.000000
  0.060606  0.030303  0.411765     24.000000
  0.090909  0.030303  0.411765     24.000000
  0.121212  0.030303  0.411765     24.000000
  0.151515  0.030303  0.411765     24.000000
  0.181818  0.030303  0.411765     24.000000
  0.212121  0.030303  0.411765     24.000000
  0.242424  0.030303  0.411765     24.000000
  0.272727  0.030303  0.411765     24.000000
  0.303030  0.030303  0.411765     24.000000
  0.333333  0.030303  0.411765     24.000000
  0.363636  0.030303  0.411765     24.000000
  0.393939  0.030303  0.411765     24.000000
  0.424242  0.030303  0.411765     24.000000
  0.454545  0.030303  0.411765     24.000000
  0.484848  0.030303  0.411765     12.000000
  0.060606  0.060606  0.411765     12.000000
  0.090909  0.060606  0.411765     24.000000
  0.121212  0.060606  0.411765     24.000000
  0.151515  0.060606  0.411765     24.000000
  0.181818  0.060606  0.411765     24.000000
  0.212121  0.060606  0.411765     24.000000
  0.242424  0.060606  0.411765     24.000000
  0.272727  0.060606  0.411765     24.000000
  0.303030  0.060606  0.411765     24.000000
  0.333333  0.060606  0.411765     24.000000
  0.363636  0.060606  0.411765     24.000000
  0.393939  0.060606  0.411765     24.000000
  0.424242  0.060606  0.411765     24.000000
  0.454545  0.060606  0.411765     24.000000
  0.090909  0.090909  0.411765     12.000000
  0.121212  0.090909  0.411765     24.000000
  0.151515  0.090909  0.411765     24.000000
  0.181818  0.090909  0.411765     24.000000
  0.212121  0.090909  0.411765     24.000000
  0.242424  0.090909  0.411765     24.000000
  0.272727  0.090909  0.411765     24.000000
  0.303030  0.090909  0.411765     24.000000
  0.333333  0.090909  0.411765     24.000000
  0.363636  0.090909  0.411765     24.000000
  0.393939  0.090909  0.411765     24.000000
  0.424242  0.090909  0.411765     24.000000
  0.454545  0.090909  0.411765     12.000000
  0.121212  0.121212  0.411765     12.000000
  0.151515  0.121212  0.411765     24.000000
  0.181818  0.121212  0.411765     24.000000
  0.212121  0.121212  0.411765     24.000000
  0.242424  0.121212  0.411765     24.000000
  0.272727  0.121212  0.411765     24.000000
  0.303030  0.121212  0.411765     24.000000
  0.333333  0.121212  0.411765     24.000000
  0.363636  0.121212  0.411765     24.000000
  0.393939  0.121212  0.411765     24.000000
  0.424242  0.121212  0.411765     24.000000
  0.151515  0.151515  0.411765     12.000000
  0.181818  0.151515  0.411765     24.000000
  0.212121  0.151515  0.411765     24.000000
  0.242424  0.151515  0.411765     24.000000
  0.272727  0.151515  0.411765     24.000000
  0.303030  0.151515  0.411765     24.000000
  0.333333  0.151515  0.411765     24.000000
  0.363636  0.151515  0.411765     24.000000
  0.393939  0.151515  0.411765     24.000000
  0.424242  0.151515  0.411765     12.000000
  0.181818  0.181818  0.411765     12.000000
  0.212121  0.181818  0.411765     24.000000
  0.242424  0.181818  0.411765     24.000000
  0.272727  0.181818  0.411765     24.000000
  0.303030  0.181818  0.411765     24.000000
  0.333333  0.181818  0.411765     24.000000
  0.363636  0.181818  0.411765     24.000000
  0.393939  0.181818  0.411765     24.000000
  0.212121  0.212121  0.411765     12.000000
  0.242424  0.212121  0.411765     24.000000
  0.272727  0.212121  0.411765     24.000000
  0.303030  0.212121  0.411765     24.000000
  0.333333  0.212121  0.411765     24.000000
  0.363636  0.212121  0.411765     24.000000
  0.393939  0.212121  0.411765     12.000000
  0.242424  0.242424  0.411765     12.000000
  0.272727  0.242424  0.411765     24.000000
  0.303030  0.242424  0.411765     24.000000
  0.333333  0.242424  0.411765     24.000000
  0.363636  0.242424  0.411765     24.000000
  0.272727  0.272727  0.411765     12.000000
  0.303030  0.272727  0.411765     24.000000
  0.333333  0.272727  0.411765     24.000000
  0.363636  0.272727  0.411765     12.000000
  0.303030  0.303030  0.411765     12.000000
  0.333333  0.303030  0.411765     24.000000
  0.333333  0.333333  0.411765      4.000000
  0.000000  0.000000  0.470588      2.000000
  0.030303  0.000000  0.470588     12.000000
  0.060606  0.000000  0.470588     12.000000
  0.090909  0.000000  0.470588     12.000000
  0.121212  0.000000  0.470588     12.000000
  0.151515  0.000000  0.470588     12.000000
  0.181818  0.000000  0.470588     12.000000
  0.212121  0.000000  0.470588     12.000000
  0.242424  0.000000  0.470588     12.000000
  0.272727  0.000000  0.470588     12.000000
  0.303030  0.000000  0.470588     12.000000
  0.333333  0.000000  0.470588     12.000000
  0.363636  0.000000  0.470588     12.000000
  0.393939  0.000000  0.470588     12.000000
  0.424242  0.000000  0.470588     12.000000
  0.454545  0.000000  0.470588     12.000000
  0.484848  0.000000  0.470588     12.000000
  0.030303  0.030303  0.470588     12.000000
  0.060606  0.030303  0.470588     24.000000
  0.090909  0.030303  0.470588     24.000000
  0.121212  0.030303  0.470588     24.000000
  0.151515  0.030303  0.470588     24.000000
  0.181818  0.030303  0.470588     24.000000
  0.212121  0.030303  0.470588     24.000000
  0.242424  0.030303  0.470588     24.000000
  0.272727  0.030303  0.470588     24.000000
  0.303030  0.030303  0.470588     24.000000
  0.333333  0.030303  0.470588     24.000000
  0.363636  0.030303  0.470588     24.000000
  0.393939  0.030303  0.470588     24.000000
  0.424242  0.030303  0.470588     24.000000
  0.454545  0.030303  0.470588     24.000000
  0.484848  0.030303  0.470588     12.000000
  0.060606  0.060606  0.470588     12.000000
  0.090909  0.060606  0.470588     24.000000
  0.121212  0.060606  0.470588     24.000000
  0.151515  0.060606  0.470588     24.000000
  0.181818  0.060606  0.470588     24.000000
  0.212121  0.060606  0.470588     24.000000
  0.242424  0.060606  0.470588     24.000000
  0.272727  0.060606  0.470588     24.000000
  0.303030  0.060606  0.470588     24.000000
  0.333333  0.060606  0.470588     24.000000
  0.363636  0.060606  0.470588     24.000000
  0.393939  0.060606  0.470588     24.000000
  0.424242  0.060606  0.470588     24.000000
  0.454545  0.060606  0.470588     24.000000
  0.090909  0.090909  0.470588     12.000000
  0.121212  0.090909  0.470588     24.000000
  0.151515  0.090909  0.470588     24.000000
  0.181818  0.090909  0.470588     24.000000
  0.212121  0.090909  0.470588     24.000000
  0.242424  0.090909  0.470588     24.000000
  0.272727  0.090909  0.470588     24.000000
  0.303030  0.090909  0.470588     24.000000
  0.333333  0.090909  0.470588     24.000000
  0.363636  0.090909  0.470588     24.000000
  0.393939  0.090909  0.470588     24.000000
  0.424242  0.090909  0.470588     24.000000
  0.454545  0.090909  0.470588     12.000000
  0.121212  0.121212  0.470588     12.000000
  0.151515  0.121212  0.470588     24.000000
  0.181818  0.121212  0.470588     24.000000
  0.212121  0.121212  0.470588     24.000000
  0.242424  0.121212  0.470588     24.000000
  0.272727  0.121212  0.470588     24.000000
  0.303030  0.121212  0.470588     24.000000
  0.333333  0.121212  0.470588     24.000000
  0.363636  0.121212  0.470588     24.000000
  0.393939  0.121212  0.470588     24.000000
  0.424242  0.121212  0.470588     24.000000
  0.151515  0.151515  0.470588     12.000000
  0.181818  0.151515  0.470588     24.000000
  0.212121  0.151515  0.470588     24.000000
  0.242424  0.151515  0.470588     24.000000
  0.272727  0.151515  0.470588     24.000000
  0.303030  0.151515  0.470588     24.000000
  0.333333  0.151515  0.470588     24.000000
  0.363636  0.151515  0.470588     24.000000
  0.393939  0.151515  0.470588     24.000000
  0.424242  0.151515  0.470588     12.000000
  0.181818  0.181818  0.470588     12.000000
  0.212121  0.181818  0.470588     24.000000
  0.242424  0.181818  0.470588     24.000000
  0.272727  0.181818  0.470588     24.000000
  0.303030  0.181818  0.470588     24.000000
  0.333333  0.181818  0.470588     24.000000
  0.363636  0.181818  0.470588     24.000000
  0.393939  0.181818  0.470588     24.000000
  0.212121  0.212121  0.470588     12.000000
  0.242424  0.212121  0.470588     24.000000
  0.272727  0.212121  0.470588     24.000000
  0.303030  0.212121  0.470588     24.000000
  0.333333  0.212121  0.470588     24.000000
  0.363636  0.212121  0.470588     24.000000
  0.393939  0.212121  0.470588     12.000000
  0.242424  0.242424  0.470588     12.000000
  0.272727  0.242424  0.470588     24.000000
  0.303030  0.242424  0.470588     24.000000
  0.333333  0.242424  0.470588     24.000000
  0.363636  0.242424  0.470588     24.000000
  0.272727  0.272727  0.470588     12.000000
  0.303030  0.272727  0.470588     24.000000
  0.333333  0.272727  0.470588     24.000000
  0.363636  0.272727  0.470588     12.000000
  0.303030  0.303030  0.470588     12.000000
  0.333333  0.303030  0.470588     24.000000
  0.333333  0.333333  0.470588      4.000000
 
 Following cartesian coordinates:
            Coordinates               Weight
  0.000000  0.000000  0.000000      1.000000
  0.011220 -0.006478  0.000000      6.000000
  0.022440 -0.012955  0.000000      6.000000
  0.033659 -0.019433  0.000000      6.000000
  0.044879 -0.025911  0.000000      6.000000
  0.056099 -0.032389  0.000000      6.000000
  0.067319 -0.038866  0.000000      6.000000
  0.078539 -0.045344  0.000000      6.000000
  0.089758 -0.051822  0.000000      6.000000
  0.100978 -0.058300  0.000000      6.000000
  0.112198 -0.064777  0.000000      6.000000
  0.123418 -0.071255  0.000000      6.000000
  0.134637 -0.077733  0.000000      6.000000
  0.145857 -0.084211  0.000000      6.000000
  0.157077 -0.090688  0.000000      6.000000
  0.168297 -0.097166  0.000000      6.000000
  0.179517 -0.103644  0.000000      6.000000
  0.022440  0.000000  0.000000      6.000000
  0.033659 -0.006478  0.000000     12.000000
  0.044879 -0.012955  0.000000     12.000000
  0.056099 -0.019433  0.000000     12.000000
  0.067319 -0.025911  0.000000     12.000000
  0.078539 -0.032389  0.000000     12.000000
  0.089758 -0.038866  0.000000     12.000000
  0.100978 -0.045344  0.000000     12.000000
  0.112198 -0.051822  0.000000     12.000000
  0.123418 -0.058300  0.000000     12.000000
  0.134637 -0.064777  0.000000     12.000000
  0.145857 -0.071255  0.000000     12.000000
  0.157077 -0.077733  0.000000     12.000000
  0.168297 -0.084211  0.000000     12.000000
  0.179517 -0.090688  0.000000     12.000000
  0.190736 -0.097166  0.000000      6.000000
  0.044879  0.000000  0.000000      6.000000
  0.056099 -0.006478  0.000000     12.000000
  0.067319 -0.012955  0.000000     12.000000
  0.078539 -0.019433  0.000000     12.000000
  0.089758 -0.025911  0.000000     12.000000
  0.100978 -0.032389  0.000000     12.000000
  0.112198 -0.038866  0.000000     12.000000
  0.123418 -0.045344  0.000000     12.000000
  0.134637 -0.051822  0.000000     12.000000
  0.145857 -0.058300  0.000000     12.000000
  0.157077 -0.064777  0.000000     12.000000
  0.168297 -0.071255  0.000000     12.000000
  0.179517 -0.077733  0.000000     12.000000
  0.190736 -0.084211  0.000000     12.000000
  0.067319  0.000000  0.000000      6.000000
  0.078539 -0.006478  0.000000     12.000000
  0.089758 -0.012955  0.000000     12.000000
  0.100978 -0.019433  0.000000     12.000000
  0.112198 -0.025911  0.000000     12.000000
  0.123418 -0.032389  0.000000     12.000000
  0.134637 -0.038866  0.000000     12.000000
  0.145857 -0.045344  0.000000     12.000000
  0.157077 -0.051822  0.000000     12.000000
  0.168297 -0.058300  0.000000     12.000000
  0.179517 -0.064777  0.000000     12.000000
  0.190736 -0.071255  0.000000     12.000000
  0.201956 -0.077733  0.000000      6.000000
  0.089758  0.000000  0.000000      6.000000
  0.100978 -0.006478  0.000000     12.000000
  0.112198 -0.012955  0.000000     12.000000
  0.123418 -0.019433  0.000000     12.000000
  0.134637 -0.025911  0.000000     12.000000
  0.145857 -0.032389  0.000000     12.000000
  0.157077 -0.038866  0.000000     12.000000
  0.168297 -0.045344  0.000000     12.000000
  0.179517 -0.051822  0.000000     12.000000
  0.190736 -0.058300  0.000000     12.000000
  0.201956 -0.064777  0.000000     12.000000
  0.112198  0.000000  0.000000      6.000000
  0.123418 -0.006478  0.000000     12.000000
  0.134637 -0.012955  0.000000     12.000000
  0.145857 -0.019433  0.000000     12.000000
  0.157077 -0.025911  0.000000     12.000000
  0.168297 -0.032389  0.000000     12.000000
  0.179517 -0.038866  0.000000     12.000000
  0.190736 -0.045344  0.000000     12.000000
  0.201956 -0.051822  0.000000     12.000000
  0.213176 -0.058300  0.000000      6.000000
  0.134637  0.000000  0.000000      6.000000
  0.145857 -0.006478  0.000000     12.000000
  0.157077 -0.012955  0.000000     12.000000
  0.168297 -0.019433  0.000000     12.000000
  0.179517 -0.025911  0.000000     12.000000
  0.190736 -0.032389  0.000000     12.000000
  0.201956 -0.038866  0.000000     12.000000
  0.213176 -0.045344  0.000000     12.000000
  0.157077  0.000000  0.000000      6.000000
  0.168297 -0.006478  0.000000     12.000000
  0.179517 -0.012955  0.000000     12.000000
  0.190736 -0.019433  0.000000     12.000000
  0.201956 -0.025911  0.000000     12.000000
  0.213176 -0.032389  0.000000     12.000000
  0.224396 -0.038866  0.000000      6.000000
  0.179517  0.000000  0.000000      6.000000
  0.190736 -0.006478  0.000000     12.000000
  0.201956 -0.012955  0.000000     12.000000
  0.213176 -0.019433  0.000000     12.000000
  0.224396 -0.025911  0.000000     12.000000
  0.201956  0.000000  0.000000      6.000000
  0.213176 -0.006478  0.000000     12.000000
  0.224396 -0.012955  0.000000     12.000000
  0.235616 -0.019433  0.000000      6.000000
  0.224396  0.000000  0.000000      6.000000
  0.235616 -0.006478  0.000000     12.000000
  0.246835  0.000000  0.000000      2.000000
  0.000000  0.000000  0.013015      2.000000
  0.011220 -0.006478  0.013015     12.000000
  0.022440 -0.012955  0.013015     12.000000
  0.033659 -0.019433  0.013015     12.000000
  0.044879 -0.025911  0.013015     12.000000
  0.056099 -0.032389  0.013015     12.000000
  0.067319 -0.038866  0.013015     12.000000
  0.078539 -0.045344  0.013015     12.000000
  0.089758 -0.051822  0.013015     12.000000
  0.100978 -0.058300  0.013015     12.000000
  0.112198 -0.064777  0.013015     12.000000
  0.123418 -0.071255  0.013015     12.000000
  0.134637 -0.077733  0.013015     12.000000
  0.145857 -0.084211  0.013015     12.000000
  0.157077 -0.090688  0.013015     12.000000
  0.168297 -0.097166  0.013015     12.000000
  0.179517 -0.103644  0.013015     12.000000
  0.022440  0.000000  0.013015     12.000000
  0.033659 -0.006478  0.013015     24.000000
  0.044879 -0.012955  0.013015     24.000000
  0.056099 -0.019433  0.013015     24.000000
  0.067319 -0.025911  0.013015     24.000000
  0.078539 -0.032389  0.013015     24.000000
  0.089758 -0.038866  0.013015     24.000000
  0.100978 -0.045344  0.013015     24.000000
  0.112198 -0.051822  0.013015     24.000000
  0.123418 -0.058300  0.013015     24.000000
  0.134637 -0.064777  0.013015     24.000000
  0.145857 -0.071255  0.013015     24.000000
  0.157077 -0.077733  0.013015     24.000000
  0.168297 -0.084211  0.013015     24.000000
  0.179517 -0.090688  0.013015     24.000000
  0.190736 -0.097166  0.013015     12.000000
  0.044879  0.000000  0.013015     12.000000
  0.056099 -0.006478  0.013015     24.000000
  0.067319 -0.012955  0.013015     24.000000
  0.078539 -0.019433  0.013015     24.000000
  0.089758 -0.025911  0.013015     24.000000
  0.100978 -0.032389  0.013015     24.000000
  0.112198 -0.038866  0.013015     24.000000
  0.123418 -0.045344  0.013015     24.000000
  0.134637 -0.051822  0.013015     24.000000
  0.145857 -0.058300  0.013015     24.000000
  0.157077 -0.064777  0.013015     24.000000
  0.168297 -0.071255  0.013015     24.000000
  0.179517 -0.077733  0.013015     24.000000
  0.190736 -0.084211  0.013015     24.000000
  0.067319  0.000000  0.013015     12.000000
  0.078539 -0.006478  0.013015     24.000000
  0.089758 -0.012955  0.013015     24.000000
  0.100978 -0.019433  0.013015     24.000000
  0.112198 -0.025911  0.013015     24.000000
  0.123418 -0.032389  0.013015     24.000000
  0.134637 -0.038866  0.013015     24.000000
  0.145857 -0.045344  0.013015     24.000000
  0.157077 -0.051822  0.013015     24.000000
  0.168297 -0.058300  0.013015     24.000000
  0.179517 -0.064777  0.013015     24.000000
  0.190736 -0.071255  0.013015     24.000000
  0.201956 -0.077733  0.013015     12.000000
  0.089758  0.000000  0.013015     12.000000
  0.100978 -0.006478  0.013015     24.000000
  0.112198 -0.012955  0.013015     24.000000
  0.123418 -0.019433  0.013015     24.000000
  0.134637 -0.025911  0.013015     24.000000
  0.145857 -0.032389  0.013015     24.000000
  0.157077 -0.038866  0.013015     24.000000
  0.168297 -0.045344  0.013015     24.000000
  0.179517 -0.051822  0.013015     24.000000
  0.190736 -0.058300  0.013015     24.000000
  0.201956 -0.064777  0.013015     24.000000
  0.112198  0.000000  0.013015     12.000000
  0.123418 -0.006478  0.013015     24.000000
  0.134637 -0.012955  0.013015     24.000000
  0.145857 -0.019433  0.013015     24.000000
  0.157077 -0.025911  0.013015     24.000000
  0.168297 -0.032389  0.013015     24.000000
  0.179517 -0.038866  0.013015     24.000000
  0.190736 -0.045344  0.013015     24.000000
  0.201956 -0.051822  0.013015     24.000000
  0.213176 -0.058300  0.013015     12.000000
  0.134637  0.000000  0.013015     12.000000
  0.145857 -0.006478  0.013015     24.000000
  0.157077 -0.012955  0.013015     24.000000
  0.168297 -0.019433  0.013015     24.000000
  0.179517 -0.025911  0.013015     24.000000
  0.190736 -0.032389  0.013015     24.000000
  0.201956 -0.038866  0.013015     24.000000
  0.213176 -0.045344  0.013015     24.000000
  0.157077  0.000000  0.013015     12.000000
  0.168297 -0.006478  0.013015     24.000000
  0.179517 -0.012955  0.013015     24.000000
  0.190736 -0.019433  0.013015     24.000000
  0.201956 -0.025911  0.013015     24.000000
  0.213176 -0.032389  0.013015     24.000000
  0.224396 -0.038866  0.013015     12.000000
  0.179517  0.000000  0.013015     12.000000
  0.190736 -0.006478  0.013015     24.000000
  0.201956 -0.012955  0.013015     24.000000
  0.213176 -0.019433  0.013015     24.000000
  0.224396 -0.025911  0.013015     24.000000
  0.201956  0.000000  0.013015     12.000000
  0.213176 -0.006478  0.013015     24.000000
  0.224396 -0.012955  0.013015     24.000000
  0.235616 -0.019433  0.013015     12.000000
  0.224396  0.000000  0.013015     12.000000
  0.235616 -0.006478  0.013015     24.000000
  0.246835  0.000000  0.013015      4.000000
  0.000000  0.000000  0.026031      2.000000
  0.011220 -0.006478  0.026031     12.000000
  0.022440 -0.012955  0.026031     12.000000
  0.033659 -0.019433  0.026031     12.000000
  0.044879 -0.025911  0.026031     12.000000
  0.056099 -0.032389  0.026031     12.000000
  0.067319 -0.038866  0.026031     12.000000
  0.078539 -0.045344  0.026031     12.000000
  0.089758 -0.051822  0.026031     12.000000
  0.100978 -0.058300  0.026031     12.000000
  0.112198 -0.064777  0.026031     12.000000
  0.123418 -0.071255  0.026031     12.000000
  0.134637 -0.077733  0.026031     12.000000
  0.145857 -0.084211  0.026031     12.000000
  0.157077 -0.090688  0.026031     12.000000
  0.168297 -0.097166  0.026031     12.000000
  0.179517 -0.103644  0.026031     12.000000
  0.022440  0.000000  0.026031     12.000000
  0.033659 -0.006478  0.026031     24.000000
  0.044879 -0.012955  0.026031     24.000000
  0.056099 -0.019433  0.026031     24.000000
  0.067319 -0.025911  0.026031     24.000000
  0.078539 -0.032389  0.026031     24.000000
  0.089758 -0.038866  0.026031     24.000000
  0.100978 -0.045344  0.026031     24.000000
  0.112198 -0.051822  0.026031     24.000000
  0.123418 -0.058300  0.026031     24.000000
  0.134637 -0.064777  0.026031     24.000000
  0.145857 -0.071255  0.026031     24.000000
  0.157077 -0.077733  0.026031     24.000000
  0.168297 -0.084211  0.026031     24.000000
  0.179517 -0.090688  0.026031     24.000000
  0.190736 -0.097166  0.026031     12.000000
  0.044879  0.000000  0.026031     12.000000
  0.056099 -0.006478  0.026031     24.000000
  0.067319 -0.012955  0.026031     24.000000
  0.078539 -0.019433  0.026031     24.000000
  0.089758 -0.025911  0.026031     24.000000
  0.100978 -0.032389  0.026031     24.000000
  0.112198 -0.038866  0.026031     24.000000
  0.123418 -0.045344  0.026031     24.000000
  0.134637 -0.051822  0.026031     24.000000
  0.145857 -0.058300  0.026031     24.000000
  0.157077 -0.064777  0.026031     24.000000
  0.168297 -0.071255  0.026031     24.000000
  0.179517 -0.077733  0.026031     24.000000
  0.190736 -0.084211  0.026031     24.000000
  0.067319  0.000000  0.026031     12.000000
  0.078539 -0.006478  0.026031     24.000000
  0.089758 -0.012955  0.026031     24.000000
  0.100978 -0.019433  0.026031     24.000000
  0.112198 -0.025911  0.026031     24.000000
  0.123418 -0.032389  0.026031     24.000000
  0.134637 -0.038866  0.026031     24.000000
  0.145857 -0.045344  0.026031     24.000000
  0.157077 -0.051822  0.026031     24.000000
  0.168297 -0.058300  0.026031     24.000000
  0.179517 -0.064777  0.026031     24.000000
  0.190736 -0.071255  0.026031     24.000000
  0.201956 -0.077733  0.026031     12.000000
  0.089758  0.000000  0.026031     12.000000
  0.100978 -0.006478  0.026031     24.000000
  0.112198 -0.012955  0.026031     24.000000
  0.123418 -0.019433  0.026031     24.000000
  0.134637 -0.025911  0.026031     24.000000
  0.145857 -0.032389  0.026031     24.000000
  0.157077 -0.038866  0.026031     24.000000
  0.168297 -0.045344  0.026031     24.000000
  0.179517 -0.051822  0.026031     24.000000
  0.190736 -0.058300  0.026031     24.000000
  0.201956 -0.064777  0.026031     24.000000
  0.112198  0.000000  0.026031     12.000000
  0.123418 -0.006478  0.026031     24.000000
  0.134637 -0.012955  0.026031     24.000000
  0.145857 -0.019433  0.026031     24.000000
  0.157077 -0.025911  0.026031     24.000000
  0.168297 -0.032389  0.026031     24.000000
  0.179517 -0.038866  0.026031     24.000000
  0.190736 -0.045344  0.026031     24.000000
  0.201956 -0.051822  0.026031     24.000000
  0.213176 -0.058300  0.026031     12.000000
  0.134637  0.000000  0.026031     12.000000
  0.145857 -0.006478  0.026031     24.000000
  0.157077 -0.012955  0.026031     24.000000
  0.168297 -0.019433  0.026031     24.000000
  0.179517 -0.025911  0.026031     24.000000
  0.190736 -0.032389  0.026031     24.000000
  0.201956 -0.038866  0.026031     24.000000
  0.213176 -0.045344  0.026031     24.000000
  0.157077  0.000000  0.026031     12.000000
  0.168297 -0.006478  0.026031     24.000000
  0.179517 -0.012955  0.026031     24.000000
  0.190736 -0.019433  0.026031     24.000000
  0.201956 -0.025911  0.026031     24.000000
  0.213176 -0.032389  0.026031     24.000000
  0.224396 -0.038866  0.026031     12.000000
  0.179517  0.000000  0.026031     12.000000
  0.190736 -0.006478  0.026031     24.000000
  0.201956 -0.012955  0.026031     24.000000
  0.213176 -0.019433  0.026031     24.000000
  0.224396 -0.025911  0.026031     24.000000
  0.201956  0.000000  0.026031     12.000000
  0.213176 -0.006478  0.026031     24.000000
  0.224396 -0.012955  0.026031     24.000000
  0.235616 -0.019433  0.026031     12.000000
  0.224396  0.000000  0.026031     12.000000
  0.235616 -0.006478  0.026031     24.000000
  0.246835  0.000000  0.026031      4.000000
  0.000000  0.000000  0.039046      2.000000
  0.011220 -0.006478  0.039046     12.000000
  0.022440 -0.012955  0.039046     12.000000
  0.033659 -0.019433  0.039046     12.000000
  0.044879 -0.025911  0.039046     12.000000
  0.056099 -0.032389  0.039046     12.000000
  0.067319 -0.038866  0.039046     12.000000
  0.078539 -0.045344  0.039046     12.000000
  0.089758 -0.051822  0.039046     12.000000
  0.100978 -0.058300  0.039046     12.000000
  0.112198 -0.064777  0.039046     12.000000
  0.123418 -0.071255  0.039046     12.000000
  0.134637 -0.077733  0.039046     12.000000
  0.145857 -0.084211  0.039046     12.000000
  0.157077 -0.090688  0.039046     12.000000
  0.168297 -0.097166  0.039046     12.000000
  0.179517 -0.103644  0.039046     12.000000
  0.022440  0.000000  0.039046     12.000000
  0.033659 -0.006478  0.039046     24.000000
  0.044879 -0.012955  0.039046     24.000000
  0.056099 -0.019433  0.039046     24.000000
  0.067319 -0.025911  0.039046     24.000000
  0.078539 -0.032389  0.039046     24.000000
  0.089758 -0.038866  0.039046     24.000000
  0.100978 -0.045344  0.039046     24.000000
  0.112198 -0.051822  0.039046     24.000000
  0.123418 -0.058300  0.039046     24.000000
  0.134637 -0.064777  0.039046     24.000000
  0.145857 -0.071255  0.039046     24.000000
  0.157077 -0.077733  0.039046     24.000000
  0.168297 -0.084211  0.039046     24.000000
  0.179517 -0.090688  0.039046     24.000000
  0.190736 -0.097166  0.039046     12.000000
  0.044879  0.000000  0.039046     12.000000
  0.056099 -0.006478  0.039046     24.000000
  0.067319 -0.012955  0.039046     24.000000
  0.078539 -0.019433  0.039046     24.000000
  0.089758 -0.025911  0.039046     24.000000
  0.100978 -0.032389  0.039046     24.000000
  0.112198 -0.038866  0.039046     24.000000
  0.123418 -0.045344  0.039046     24.000000
  0.134637 -0.051822  0.039046     24.000000
  0.145857 -0.058300  0.039046     24.000000
  0.157077 -0.064777  0.039046     24.000000
  0.168297 -0.071255  0.039046     24.000000
  0.179517 -0.077733  0.039046     24.000000
  0.190736 -0.084211  0.039046     24.000000
  0.067319  0.000000  0.039046     12.000000
  0.078539 -0.006478  0.039046     24.000000
  0.089758 -0.012955  0.039046     24.000000
  0.100978 -0.019433  0.039046     24.000000
  0.112198 -0.025911  0.039046     24.000000
  0.123418 -0.032389  0.039046     24.000000
  0.134637 -0.038866  0.039046     24.000000
  0.145857 -0.045344  0.039046     24.000000
  0.157077 -0.051822  0.039046     24.000000
  0.168297 -0.058300  0.039046     24.000000
  0.179517 -0.064777  0.039046     24.000000
  0.190736 -0.071255  0.039046     24.000000
  0.201956 -0.077733  0.039046     12.000000
  0.089758  0.000000  0.039046     12.000000
  0.100978 -0.006478  0.039046     24.000000
  0.112198 -0.012955  0.039046     24.000000
  0.123418 -0.019433  0.039046     24.000000
  0.134637 -0.025911  0.039046     24.000000
  0.145857 -0.032389  0.039046     24.000000
  0.157077 -0.038866  0.039046     24.000000
  0.168297 -0.045344  0.039046     24.000000
  0.179517 -0.051822  0.039046     24.000000
  0.190736 -0.058300  0.039046     24.000000
  0.201956 -0.064777  0.039046     24.000000
  0.112198  0.000000  0.039046     12.000000
  0.123418 -0.006478  0.039046     24.000000
  0.134637 -0.012955  0.039046     24.000000
  0.145857 -0.019433  0.039046     24.000000
  0.157077 -0.025911  0.039046     24.000000
  0.168297 -0.032389  0.039046     24.000000
  0.179517 -0.038866  0.039046     24.000000
  0.190736 -0.045344  0.039046     24.000000
  0.201956 -0.051822  0.039046     24.000000
  0.213176 -0.058300  0.039046     12.000000
  0.134637  0.000000  0.039046     12.000000
  0.145857 -0.006478  0.039046     24.000000
  0.157077 -0.012955  0.039046     24.000000
  0.168297 -0.019433  0.039046     24.000000
  0.179517 -0.025911  0.039046     24.000000
  0.190736 -0.032389  0.039046     24.000000
  0.201956 -0.038866  0.039046     24.000000
  0.213176 -0.045344  0.039046     24.000000
  0.157077  0.000000  0.039046     12.000000
  0.168297 -0.006478  0.039046     24.000000
  0.179517 -0.012955  0.039046     24.000000
  0.190736 -0.019433  0.039046     24.000000
  0.201956 -0.025911  0.039046     24.000000
  0.213176 -0.032389  0.039046     24.000000
  0.224396 -0.038866  0.039046     12.000000
  0.179517  0.000000  0.039046     12.000000
  0.190736 -0.006478  0.039046     24.000000
  0.201956 -0.012955  0.039046     24.000000
  0.213176 -0.019433  0.039046     24.000000
  0.224396 -0.025911  0.039046     24.000000
  0.201956  0.000000  0.039046     12.000000
  0.213176 -0.006478  0.039046     24.000000
  0.224396 -0.012955  0.039046     24.000000
  0.235616 -0.019433  0.039046     12.000000
  0.224396  0.000000  0.039046     12.000000
  0.235616 -0.006478  0.039046     24.000000
  0.246835  0.000000  0.039046      4.000000
  0.000000  0.000000  0.052061      2.000000
  0.011220 -0.006478  0.052061     12.000000
  0.022440 -0.012955  0.052061     12.000000
  0.033659 -0.019433  0.052061     12.000000
  0.044879 -0.025911  0.052061     12.000000
  0.056099 -0.032389  0.052061     12.000000
  0.067319 -0.038866  0.052061     12.000000
  0.078539 -0.045344  0.052061     12.000000
  0.089758 -0.051822  0.052061     12.000000
  0.100978 -0.058300  0.052061     12.000000
  0.112198 -0.064777  0.052061     12.000000
  0.123418 -0.071255  0.052061     12.000000
  0.134637 -0.077733  0.052061     12.000000
  0.145857 -0.084211  0.052061     12.000000
  0.157077 -0.090688  0.052061     12.000000
  0.168297 -0.097166  0.052061     12.000000
  0.179517 -0.103644  0.052061     12.000000
  0.022440  0.000000  0.052061     12.000000
  0.033659 -0.006478  0.052061     24.000000
  0.044879 -0.012955  0.052061     24.000000
  0.056099 -0.019433  0.052061     24.000000
  0.067319 -0.025911  0.052061     24.000000
  0.078539 -0.032389  0.052061     24.000000
  0.089758 -0.038866  0.052061     24.000000
  0.100978 -0.045344  0.052061     24.000000
  0.112198 -0.051822  0.052061     24.000000
  0.123418 -0.058300  0.052061     24.000000
  0.134637 -0.064777  0.052061     24.000000
  0.145857 -0.071255  0.052061     24.000000
  0.157077 -0.077733  0.052061     24.000000
  0.168297 -0.084211  0.052061     24.000000
  0.179517 -0.090688  0.052061     24.000000
  0.190736 -0.097166  0.052061     12.000000
  0.044879  0.000000  0.052061     12.000000
  0.056099 -0.006478  0.052061     24.000000
  0.067319 -0.012955  0.052061     24.000000
  0.078539 -0.019433  0.052061     24.000000
  0.089758 -0.025911  0.052061     24.000000
  0.100978 -0.032389  0.052061     24.000000
  0.112198 -0.038866  0.052061     24.000000
  0.123418 -0.045344  0.052061     24.000000
  0.134637 -0.051822  0.052061     24.000000
  0.145857 -0.058300  0.052061     24.000000
  0.157077 -0.064777  0.052061     24.000000
  0.168297 -0.071255  0.052061     24.000000
  0.179517 -0.077733  0.052061     24.000000
  0.190736 -0.084211  0.052061     24.000000
  0.067319  0.000000  0.052061     12.000000
  0.078539 -0.006478  0.052061     24.000000
  0.089758 -0.012955  0.052061     24.000000
  0.100978 -0.019433  0.052061     24.000000
  0.112198 -0.025911  0.052061     24.000000
  0.123418 -0.032389  0.052061     24.000000
  0.134637 -0.038866  0.052061     24.000000
  0.145857 -0.045344  0.052061     24.000000
  0.157077 -0.051822  0.052061     24.000000
  0.168297 -0.058300  0.052061     24.000000
  0.179517 -0.064777  0.052061     24.000000
  0.190736 -0.071255  0.052061     24.000000
  0.201956 -0.077733  0.052061     12.000000
  0.089758  0.000000  0.052061     12.000000
  0.100978 -0.006478  0.052061     24.000000
  0.112198 -0.012955  0.052061     24.000000
  0.123418 -0.019433  0.052061     24.000000
  0.134637 -0.025911  0.052061     24.000000
  0.145857 -0.032389  0.052061     24.000000
  0.157077 -0.038866  0.052061     24.000000
  0.168297 -0.045344  0.052061     24.000000
  0.179517 -0.051822  0.052061     24.000000
  0.190736 -0.058300  0.052061     24.000000
  0.201956 -0.064777  0.052061     24.000000
  0.112198  0.000000  0.052061     12.000000
  0.123418 -0.006478  0.052061     24.000000
  0.134637 -0.012955  0.052061     24.000000
  0.145857 -0.019433  0.052061     24.000000
  0.157077 -0.025911  0.052061     24.000000
  0.168297 -0.032389  0.052061     24.000000
  0.179517 -0.038866  0.052061     24.000000
  0.190736 -0.045344  0.052061     24.000000
  0.201956 -0.051822  0.052061     24.000000
  0.213176 -0.058300  0.052061     12.000000
  0.134637  0.000000  0.052061     12.000000
  0.145857 -0.006478  0.052061     24.000000
  0.157077 -0.012955  0.052061     24.000000
  0.168297 -0.019433  0.052061     24.000000
  0.179517 -0.025911  0.052061     24.000000
  0.190736 -0.032389  0.052061     24.000000
  0.201956 -0.038866  0.052061     24.000000
  0.213176 -0.045344  0.052061     24.000000
  0.157077  0.000000  0.052061     12.000000
  0.168297 -0.006478  0.052061     24.000000
  0.179517 -0.012955  0.052061     24.000000
  0.190736 -0.019433  0.052061     24.000000
  0.201956 -0.025911  0.052061     24.000000
  0.213176 -0.032389  0.052061     24.000000
  0.224396 -0.038866  0.052061     12.000000
  0.179517  0.000000  0.052061     12.000000
  0.190736 -0.006478  0.052061     24.000000
  0.201956 -0.012955  0.052061     24.000000
  0.213176 -0.019433  0.052061     24.000000
  0.224396 -0.025911  0.052061     24.000000
  0.201956  0.000000  0.052061     12.000000
  0.213176 -0.006478  0.052061     24.000000
  0.224396 -0.012955  0.052061     24.000000
  0.235616 -0.019433  0.052061     12.000000
  0.224396  0.000000  0.052061     12.000000
  0.235616 -0.006478  0.052061     24.000000
  0.246835  0.000000  0.052061      4.000000
  0.000000  0.000000  0.065077      2.000000
  0.011220 -0.006478  0.065077     12.000000
  0.022440 -0.012955  0.065077     12.000000
  0.033659 -0.019433  0.065077     12.000000
  0.044879 -0.025911  0.065077     12.000000
  0.056099 -0.032389  0.065077     12.000000
  0.067319 -0.038866  0.065077     12.000000
  0.078539 -0.045344  0.065077     12.000000
  0.089758 -0.051822  0.065077     12.000000
  0.100978 -0.058300  0.065077     12.000000
  0.112198 -0.064777  0.065077     12.000000
  0.123418 -0.071255  0.065077     12.000000
  0.134637 -0.077733  0.065077     12.000000
  0.145857 -0.084211  0.065077     12.000000
  0.157077 -0.090688  0.065077     12.000000
  0.168297 -0.097166  0.065077     12.000000
  0.179517 -0.103644  0.065077     12.000000
  0.022440  0.000000  0.065077     12.000000
  0.033659 -0.006478  0.065077     24.000000
  0.044879 -0.012955  0.065077     24.000000
  0.056099 -0.019433  0.065077     24.000000
  0.067319 -0.025911  0.065077     24.000000
  0.078539 -0.032389  0.065077     24.000000
  0.089758 -0.038866  0.065077     24.000000
  0.100978 -0.045344  0.065077     24.000000
  0.112198 -0.051822  0.065077     24.000000
  0.123418 -0.058300  0.065077     24.000000
  0.134637 -0.064777  0.065077     24.000000
  0.145857 -0.071255  0.065077     24.000000
  0.157077 -0.077733  0.065077     24.000000
  0.168297 -0.084211  0.065077     24.000000
  0.179517 -0.090688  0.065077     24.000000
  0.190736 -0.097166  0.065077     12.000000
  0.044879  0.000000  0.065077     12.000000
  0.056099 -0.006478  0.065077     24.000000
  0.067319 -0.012955  0.065077     24.000000
  0.078539 -0.019433  0.065077     24.000000
  0.089758 -0.025911  0.065077     24.000000
  0.100978 -0.032389  0.065077     24.000000
  0.112198 -0.038866  0.065077     24.000000
  0.123418 -0.045344  0.065077     24.000000
  0.134637 -0.051822  0.065077     24.000000
  0.145857 -0.058300  0.065077     24.000000
  0.157077 -0.064777  0.065077     24.000000
  0.168297 -0.071255  0.065077     24.000000
  0.179517 -0.077733  0.065077     24.000000
  0.190736 -0.084211  0.065077     24.000000
  0.067319  0.000000  0.065077     12.000000
  0.078539 -0.006478  0.065077     24.000000
  0.089758 -0.012955  0.065077     24.000000
  0.100978 -0.019433  0.065077     24.000000
  0.112198 -0.025911  0.065077     24.000000
  0.123418 -0.032389  0.065077     24.000000
  0.134637 -0.038866  0.065077     24.000000
  0.145857 -0.045344  0.065077     24.000000
  0.157077 -0.051822  0.065077     24.000000
  0.168297 -0.058300  0.065077     24.000000
  0.179517 -0.064777  0.065077     24.000000
  0.190736 -0.071255  0.065077     24.000000
  0.201956 -0.077733  0.065077     12.000000
  0.089758  0.000000  0.065077     12.000000
  0.100978 -0.006478  0.065077     24.000000
  0.112198 -0.012955  0.065077     24.000000
  0.123418 -0.019433  0.065077     24.000000
  0.134637 -0.025911  0.065077     24.000000
  0.145857 -0.032389  0.065077     24.000000
  0.157077 -0.038866  0.065077     24.000000
  0.168297 -0.045344  0.065077     24.000000
  0.179517 -0.051822  0.065077     24.000000
  0.190736 -0.058300  0.065077     24.000000
  0.201956 -0.064777  0.065077     24.000000
  0.112198  0.000000  0.065077     12.000000
  0.123418 -0.006478  0.065077     24.000000
  0.134637 -0.012955  0.065077     24.000000
  0.145857 -0.019433  0.065077     24.000000
  0.157077 -0.025911  0.065077     24.000000
  0.168297 -0.032389  0.065077     24.000000
  0.179517 -0.038866  0.065077     24.000000
  0.190736 -0.045344  0.065077     24.000000
  0.201956 -0.051822  0.065077     24.000000
  0.213176 -0.058300  0.065077     12.000000
  0.134637  0.000000  0.065077     12.000000
  0.145857 -0.006478  0.065077     24.000000
  0.157077 -0.012955  0.065077     24.000000
  0.168297 -0.019433  0.065077     24.000000
  0.179517 -0.025911  0.065077     24.000000
  0.190736 -0.032389  0.065077     24.000000
  0.201956 -0.038866  0.065077     24.000000
  0.213176 -0.045344  0.065077     24.000000
  0.157077  0.000000  0.065077     12.000000
  0.168297 -0.006478  0.065077     24.000000
  0.179517 -0.012955  0.065077     24.000000
  0.190736 -0.019433  0.065077     24.000000
  0.201956 -0.025911  0.065077     24.000000
  0.213176 -0.032389  0.065077     24.000000
  0.224396 -0.038866  0.065077     12.000000
  0.179517  0.000000  0.065077     12.000000
  0.190736 -0.006478  0.065077     24.000000
  0.201956 -0.012955  0.065077     24.000000
  0.213176 -0.019433  0.065077     24.000000
  0.224396 -0.025911  0.065077     24.000000
  0.201956  0.000000  0.065077     12.000000
  0.213176 -0.006478  0.065077     24.000000
  0.224396 -0.012955  0.065077     24.000000
  0.235616 -0.019433  0.065077     12.000000
  0.224396  0.000000  0.065077     12.000000
  0.235616 -0.006478  0.065077     24.000000
  0.246835  0.000000  0.065077      4.000000
  0.000000  0.000000  0.078092      2.000000
  0.011220 -0.006478  0.078092     12.000000
  0.022440 -0.012955  0.078092     12.000000
  0.033659 -0.019433  0.078092     12.000000
  0.044879 -0.025911  0.078092     12.000000
  0.056099 -0.032389  0.078092     12.000000
  0.067319 -0.038866  0.078092     12.000000
  0.078539 -0.045344  0.078092     12.000000
  0.089758 -0.051822  0.078092     12.000000
  0.100978 -0.058300  0.078092     12.000000
  0.112198 -0.064777  0.078092     12.000000
  0.123418 -0.071255  0.078092     12.000000
  0.134637 -0.077733  0.078092     12.000000
  0.145857 -0.084211  0.078092     12.000000
  0.157077 -0.090688  0.078092     12.000000
  0.168297 -0.097166  0.078092     12.000000
  0.179517 -0.103644  0.078092     12.000000
  0.022440  0.000000  0.078092     12.000000
  0.033659 -0.006478  0.078092     24.000000
  0.044879 -0.012955  0.078092     24.000000
  0.056099 -0.019433  0.078092     24.000000
[...]
     11       1.1145      2.00000
     12       1.5443      2.00000
     13       6.1736      0.00000
     14       6.2210      0.00000
     15       6.8502      0.00000
     16       6.8969      0.00000
     17      15.2601      0.00000
     18      16.3385      0.00000
     19      19.9343      0.00000
     20      20.1887      0.00000
     21      21.7633      0.00000
     22      21.8490      0.00000
     23      27.6760      0.00000
     24      27.8982      0.00000
     25      29.3155      0.00000
     26      29.4776      0.00000
     27      37.7150      0.00000
     28      38.1397      0.00000
     29      41.6801      0.00000
     30      41.9597      0.00000
     31      42.8979      0.00000
     32      43.3815      0.00000
     33      44.1554      0.00000
     34      45.6913      0.00000
     35      48.1406      0.00000
     36      48.3558      0.00000
     37      49.4671      0.00000
     38      49.8290      0.00000
     39      50.4187      0.00000
     40      50.6100      0.00000
     41      51.9977      0.00000
     42      52.9627      0.00000
     43      53.7723      0.00000
     44      53.9577      0.00000

 k-point 967 :       0.3030    0.2727    0.4706
  band No.  band energies     occupation 
      1      -7.6958      2.00000
      2      -7.6842      2.00000
      3      -7.4514      2.00000
      4      -7.4482      2.00000
      5      -7.2668      2.00000
      6      -7.2152      2.00000
      7      -7.0659      2.00000
      8      -7.0552      2.00000
      9      -6.7423      2.00000
     10      -6.7231      2.00000
     11       1.8242      2.00000
     12       2.2382      2.00000
     13       5.3420      0.00000
     14       5.6664      0.00000
     15       6.3554      0.00000
     16       6.6868      0.00000
     17      15.8713      0.00000
     18      16.8503      0.00000
     19      19.2995      0.00000
     20      19.8249      0.00000
     21      21.1936      0.00000
     22      21.6483      0.00000
     23      28.0018      0.00000
     24      28.3201      0.00000
     25      30.1274      0.00000
     26      30.4269      0.00000
     27      36.1463      0.00000
     28      36.5528      0.00000
     29      41.7618      0.00000
     30      43.0350      0.00000
     31      43.1565      0.00000
     32      44.5571      0.00000
     33      44.9451      0.00000
     34      46.5202      0.00000
     35      47.4753      0.00000
     36      48.2509      0.00000
     37      49.3217      0.00000
     38      50.0913      0.00000
     39      50.6290      0.00000
     40      51.5976      0.00000
     41      51.7521      0.00000
     42      51.9155      0.00000
     43      54.8603      0.00000
     44      54.9975      0.00000

 k-point 968 :       0.3333    0.2727    0.4706
  band No.  band energies     occupation 
      1      -7.6865      2.00000
      2      -7.6747      2.00000
      3      -7.4593      2.00000
      4      -7.4486      2.00000
      5      -7.2631      2.00000
      6      -7.2214      2.00000
      7      -7.0559      2.00000
      8      -7.0497      2.00000
      9      -6.7515      2.00000
     10      -6.7380      2.00000
     11       2.5466      2.00000
     12       2.9072      2.07630
     13       4.5498      0.00000
     14       4.8919      0.00000
     15       6.2085      0.00000
     16       6.5962      0.00000
     17      16.4857      0.00000
     18      17.1864      0.00000
     19      18.7915      0.00000
     20      19.4390      0.00000
     21      20.8361      0.00000
     22      21.5551      0.00000
     23      28.0491      0.00000
     24      28.4121      0.00000
     25      31.3307      0.00000
     26      31.6749      0.00000
     27      34.6660      0.00000
     28      35.0408      0.00000
     29      41.7359      0.00000
     30      43.0107      0.00000
     31      44.4049      0.00000
     32      45.7351      0.00000
     33      46.0044      0.00000
     34      46.5941      0.00000
     35      47.4247      0.00000
     36      47.8972      0.00000
     37      48.4040      0.00000
     38      49.2884      0.00000
     39      49.7737      0.00000
     40      50.9733      0.00000
     41      53.2540      0.00000
     42      53.4412      0.00000
     43      56.1543      0.00000
     44      56.4079      0.00000

 k-point 969 :       0.3636    0.2727    0.4706
  band No.  band energies     occupation 
      1      -7.6833      2.00000
      2      -7.6707      2.00000
      3      -7.4640      2.00000
      4      -7.4492      2.00000
      5      -7.2610      2.00000
      6      -7.2233      2.00000
      7      -7.0508      2.00000
      8      -7.0482      2.00000
      9      -6.7543      2.00000
     10      -6.7446      2.00000
     11       3.1019      2.00000
     12       3.1628      1.97842
     13       4.2246      0.00000
     14       4.3342      0.00000
     15       6.1712      0.00000
     16       6.5676      0.00000
     17      16.9618      0.00000
     18      17.0822      0.00000
     19      18.6763      0.00000
     20      19.1891      0.00000
     21      20.7265      0.00000
     22      21.5250      0.00000
     23      28.0522      0.00000
     24      28.4233      0.00000
     25      32.2660      0.00000
     26      32.4709      0.00000
     27      33.8142      0.00000
     28      34.0105      0.00000
     29      41.7251      0.00000
     30      42.9988      0.00000
     31      45.4812      0.00000
     32      45.5168      0.00000
     33      46.8121      0.00000
     34      47.1155      0.00000
     35      47.1515      0.00000
     36      47.3767      0.00000
     37      48.3662      0.00000
     38      48.4495      0.00000
     39      49.3005      0.00000
     40      50.8126      0.00000
     41      54.2071      0.00000
     42      54.3708      0.00000
     43      56.3745      0.00000
     44      56.4110      0.00000

 k-point 970 :       0.3030    0.3030    0.4706
  band No.  band energies     occupation 
      1      -7.6769      2.00000
      2      -7.6719      2.00000
      3      -7.4514      2.00000
      4      -7.4271      2.00000
      5      -7.2574      2.00000
      6      -7.2257      2.00000
      7      -7.0797      2.00000
      8      -7.0703      2.00000
      9      -6.7517      2.00000
     10      -6.7384      2.00000
     11       2.5420      2.00000
     12       2.9266      2.16510
     13       5.1479      0.00000
     14       5.1717      0.00000
     15       5.8750      0.00000
     16       5.9007      0.00000
     17      16.4823      0.00000
     18      17.2810      0.00000
     19      18.9394      0.00000
     20      19.5200      0.00000
     21      20.9003      0.00000
     22      21.0553      0.00000
     23      29.0623      0.00000
     24      29.2832      0.00000
     25      30.4463      0.00000
     26      30.6063      0.00000
     27      34.6251      0.00000
     28      35.0061      0.00000
     29      43.0105      0.00000
     30      43.3323      0.00000
     31      44.2548      0.00000
     32      44.7617      0.00000
     33      45.5720      0.00000
     34      46.9470      0.00000
     35      47.3440      0.00000
     36      47.5935      0.00000
     37      48.7190      0.00000
     38      49.0982      0.00000
     39      49.7556      0.00000
     40      50.6777      0.00000
     41      53.5333      0.00000
     42      53.6383      0.00000
     43      56.2338      0.00000
     44      56.3034      0.00000

 k-point 971 :       0.3333    0.3030    0.4706
  band No.  band energies     occupation 
      1      -7.6669      2.00000
      2      -7.6630      2.00000
      3      -7.4586      2.00000
      4      -7.4172      2.00000
      5      -7.2433      2.00000
      6      -7.2292      2.00000
      7      -7.0890      2.00000
      8      -7.0807      2.00000
      9      -6.7559      2.00000
     10      -6.7489      2.00000
     11       3.2316      1.89233
     12       3.4829      0.53473
     13       4.5437      0.00000
     14       4.7870      0.00000
     15       5.4747      0.00000
     16       5.7691      0.00000
     17      17.0531      0.00000
     18      17.4286      0.00000
     19      18.5675      0.00000
     20      19.4366      0.00000
     21      20.5309      0.00000
     22      20.9020      0.00000
     23      29.3937      0.00000
     24      29.7285      0.00000
     25      31.1739      0.00000
     26      31.4267      0.00000
     27      33.3750      0.00000
     28      33.6533      0.00000
     29      43.1510      0.00000
     30      44.4389      0.00000
     31      44.5724      0.00000
     32      45.8727      0.00000
     33      45.9717      0.00000
     34      46.2790      0.00000
     35      47.2332      0.00000
     36      47.5025      0.00000
     37      47.9338      0.00000
     38      48.4021      0.00000
     39      49.2775      0.00000
     40      50.1087      0.00000
     41      55.1880      0.00000
     42      55.3059      0.00000
     43      57.3123      0.00000
     44      57.5362      0.00000

 k-point 972 :       0.3333    0.3333    0.4706
  band No.  band energies     occupation 
      1      -7.6590      2.00000
      2      -7.6589      2.00000
      3      -7.4617      2.00000
      4      -7.4066      2.00000
      5      -7.2294      2.00000
      6      -7.2293      2.00000
      7      -7.1059      2.00000
      8      -7.0944      2.00000
      9      -6.7551      2.00000
     10      -6.7551      2.00000
     11       3.6904     -0.05051
     12       3.6905      0.00000
     13       4.4677      0.00000
     14       4.9069      0.00000
     15       5.1979      0.00000
     16       5.1979      0.00000
     17      17.4359      0.00000
     18      17.4360      0.00000
     19      18.3417      0.00000
     20      19.5510      0.00000
     21      20.5129      0.00000
     22      20.5130      0.00000
     23      30.4669      0.00000
     24      30.7494      0.00000
     25      30.7496      0.00000
     26      30.8802      0.00000
     27      32.8804      0.00000
     28      32.8805      0.00000
     29      44.2507      0.00000
     30      44.7859      0.00000
     31      44.7860      0.00000
     32      45.4941      0.00000
     33      46.2285      0.00000
     34      46.2285      0.00000
     35      46.3938      0.00000
     36      47.5162      0.00000
     37      47.5163      0.00000
     38      48.4678      0.00000
     39      49.4426      0.00000
     40      49.4427      0.00000
     41      56.4270      0.00000
     42      56.4272      0.00000
     43      57.9417      0.00000
     44      57.9434      0.00000


--------------------------------------------------------------------------------------------------------


 soft charge-density along one line, spin component           1
         0         1         2         3         4         5         6         7         8         9
 total charge-density along one line
 
 pseudopotential strength for first ion, spin component:           1
-13.213   0.000   0.000   0.000   0.000   3.276   0.000   0.000
  0.000 -13.210   0.000   0.000   0.000   0.000   3.275   0.000
  0.000   0.000 -13.233   0.000   0.000   0.000   0.000   3.286
  0.000   0.000   0.000 -13.210   0.000   0.000   0.000   0.000
  0.000   0.000   0.000   0.000 -13.212   0.000   0.000   0.000
  3.276   0.000   0.000   0.000   0.000  -0.131   0.000   0.000
  0.000   3.275   0.000   0.000   0.000   0.000  -0.129   0.000
  0.000   0.000   3.286   0.000   0.000   0.000   0.000  -0.139
  0.000   0.000   0.000   3.275   0.000   0.000   0.000   0.000
  0.000   0.000   0.000   0.000   3.276   0.000   0.000   0.000
  0.000   0.000   0.000   0.000   0.000   0.000   0.000   0.000
  0.000   0.000   0.000   0.000   0.000   0.000   0.000   0.000
  0.000   0.000   0.000   0.000   0.000   0.000   0.000   0.000
  0.000   0.000   0.000   0.000   0.000   0.000   0.000   0.000
  0.000   0.000   0.000   0.000   0.000   0.000   0.000   0.000
  0.000   0.000   0.000   0.000   0.000   0.000   0.000   0.000
  0.000   0.000   0.000   0.000   0.000   0.000   0.000   0.000
  0.000   0.000   0.000   0.000   0.000   0.000   0.000   0.000
 total augmentation occupancy for first ion, spin component:           1
  2.095   0.000  -0.032   0.000  -0.043   0.138  -0.001  -0.038   0.001  -0.070   0.089  -0.082  -0.001  -0.001   0.003   0.000
  0.000   2.026   0.000  -0.016   0.000  -0.001   0.015  -0.001  -0.034   0.000  -0.003   0.001   0.000  -0.002   0.001   0.000
 -0.032   0.000   2.046   0.001   0.035  -0.038  -0.001   0.063   0.001   0.047  -0.003   0.004   0.000   0.000   0.001   0.000
  0.000  -0.016   0.001   2.059   0.000   0.001  -0.034   0.001   0.090  -0.002   0.010  -0.002  -0.001   0.001   0.000   0.000
 -0.043   0.000   0.035   0.000   1.997  -0.070   0.000   0.047  -0.002  -0.018  -0.091   0.094   0.002   0.000  -0.001  -0.001
  0.138  -0.001  -0.038   0.001  -0.070   0.060  -0.005   0.020   0.002  -0.020   0.138  -0.017  -0.011  -0.007   0.033   0.001
 -0.001   0.015  -0.001  -0.034   0.000  -0.005   0.014   0.005  -0.021   0.000  -0.020  -0.005   0.000   0.000   0.001   0.000
 -0.038  -0.001   0.063   0.001   0.047   0.020   0.005   0.080  -0.033  -0.007  -0.021   0.000   0.001  -0.004   0.004   0.000
  0.001  -0.034   0.001   0.090  -0.002   0.002  -0.021  -0.033   0.090  -0.004   0.048   0.016  -0.003  -0.003   0.004   0.000
 -0.070   0.000   0.047  -0.002  -0.018  -0.020   0.000  -0.007  -0.004   0.069  -0.196   0.028   0.014   0.001  -0.012  -0.001
  0.089  -0.003  -0.003   0.010  -0.091   0.138  -0.020  -0.021   0.048  -0.196   1.242  -0.296  -0.027  -0.008   0.038   0.002
 -0.082   0.001   0.004  -0.002   0.094  -0.017  -0.005   0.000   0.016   0.028  -0.296   0.167  -0.001  -0.002   0.003   0.000
 -0.001   0.000   0.000  -0.001   0.002  -0.011   0.000   0.001  -0.003   0.014  -0.027  -0.001   0.077   0.025  -0.128  -0.006
 -0.001  -0.002   0.000   0.001   0.000  -0.007   0.000  -0.004  -0.003   0.001  -0.008  -0.002   0.025   0.204  -0.054  -0.001
  0.003   0.001   0.001   0.000  -0.001   0.033   0.001   0.004   0.004  -0.012   0.038   0.003  -0.128  -0.054   0.363   0.009
  0.000   0.000   0.000   0.000  -0.001   0.001   0.000   0.000   0.000  -0.001   0.002   0.000  -0.006  -0.001   0.009   0.001
  0.000   0.000   0.000   0.000   0.000   0.000   0.000   0.000   0.000   0.000   0.000   0.000  -0.001  -0.017   0.001   0.000
 -0.001   0.000   0.000   0.000   0.000  -0.002   0.000   0.000   0.000   0.001  -0.002   0.000   0.009   0.001  -0.029  -0.001


------------------------ aborting loop because EDIFF is reached ----------------------------------------


 


 total charge     
 
# of ion     s       p       d       tot
----------------------------------------
  1        0.584   0.459   9.843  10.886
  2        0.584   0.459   9.843  10.887
------------------------------------------------
tot        1.168   0.919  19.686  21.773
 


--------------------------------------------------------------------------------------------------------


    CHARGE:  VPU time    0.29: CPU time    0.29
    FORLOC:  VPU time    0.00: CPU time    0.00
    FORNL :  VPU time    0.60: CPU time    0.60
    STRESS:  VPU time    1.95: CPU time    1.95
    FORCOR:  VPU time    0.00: CPU time    0.00
    FORHAR:  VPU time    0.00: CPU time    0.00
    MIXING:  VPU time    0.00: CPU time    0.00


--------------------------------------------------------------------------------------------------------



  FREE ENERGIE OF THE ION-ELECTRON SYSTEM (eV)
  ---------------------------------------------------
  free  energy   TOTEN  =        -0.915070 eV

  energy  without entropy=       -0.915070  energy(sigma->0) =       -0.915070
 

  FORCE on cell =-STRESS in cart. coord.  units (eV/reduce length):
  Direction    X        Y        Z        XY       YZ       ZX
  --------------------------------------------------------------------------------------
  Alpha Z    221.69    221.69    221.69
  Ewald     -814.58   -814.58   -839.39      0.00      0.00      0.00
  Hartree    317.02    317.02    302.07      0.00      0.00      0.00
  E(xc)     -144.87   -144.87   -144.90      0.00      0.00      0.00
  Local      265.71    265.71    305.38      0.00      0.00      0.00
  n-local    -70.05    -71.37    -70.89     -0.46      0.19     -0.35
  augment     80.45     80.45     80.50      0.00      0.00      0.00
  Kinetic    155.99    134.52    145.54     -9.22      1.69     -4.19
  -------------------------------------------------------------------------------------
  Total       -0.04     -0.04     -0.01      0.00      0.00      0.00
  in kB       -2.21     -2.21     -0.37      0.00      0.00      0.00
  external pressure =       -1.60 kB  Pullay stress =        0.00 kB


 VOLUME and BASIS-vectors are now :
 -----------------------------------------------------------------------------
  energy-cutoff  :      387.42
  volume of cell :       28.55
      direct lattice vectors                 reciprocal lattice vectors
     1.350428115 -2.339010107  0.000000000     0.370252955 -0.213765643  0.000000000
     1.350428115  2.339010107  0.000000000     0.370252955  0.213765643  0.000000000
     0.000000000  0.000000000  4.519548904     0.000000000  0.000000000  0.221261020

  length of vectors
     2.700856230  2.700856230  4.519548904     0.427531286  0.427531286  0.221261020


 FORCES acting on ions
    electron-ion (+dipol)            ewald-force                    non-local-force                 convergence-correction
 -----------------------------------------------------------------------------------------------
   0.163E-11 0.144E-05 -.156E-12   0.744E-12 -.477E-12 -.377E-13   -.694E-17 0.347E-17 0.000E+00   0.639E-13 0.210E-07 0.199E-14
   0.176E-11 0.100E-04 0.344E-11   -.750E-12 0.472E-12 0.377E-13   0.694E-17 -.347E-17 0.000E+00   -.512E-13 -.211E-07 -.354E-13
 -----------------------------------------------------------------------------------------------
   0.339E-11 0.115E-04 0.328E-11   -.548E-14 -.474E-14 0.000E+00   0.000E+00 0.000E+00 0.000E+00   0.127E-13 -.152E-09 -.334E-13
 
 
 POSITION                                       TOTAL-FORCE (eV/Angst)
 -----------------------------------------------------------------------------------
      0.00000      0.00000      0.00000         0.000000      0.000000      0.000000
      1.35043      0.77967      2.25977         0.000000      0.000000      0.000000
 -----------------------------------------------------------------------------------
    total drift:                                0.000000      0.000011      0.000000


--------------------------------------------------------------------------------------------------------



 mean value of Nose-termostat <S>:     1.000 mean value of <T> :     0.000
 mean temperature <T/S>/<1/S>  :     0.000

     LOOP+:  VPU time  207.66: CPU time  207.94
 


 total charge     
 
# of ion     s       p       d       tot
----------------------------------------
  1        0.584   0.459   9.843  10.886
  2        0.584   0.459   9.843  10.887
------------------------------------------------
tot        1.168   0.919  19.686  21.773
 
 BZINTS: Fermi energy:  3.362679; 24.000000 electrons
         Band energy:-148.215951;  BLOECHL correction: -0.020647
  
  
 General timing and accounting informations for this job:
 ========================================================
  
                  Total CPU time used (sec):      223.815
                            User time (sec):      223.715
                          System time (sec):        0.100
                         Elapsed time (sec):      225.350
  
                   Maximum memory used (kb):           0.
                   Average memory used (kb):           0.
  
                          Minor page faults:        28566
                          Major page faults:           10
                 Voluntary context switches:         2081
