  python dir          : /u/if/mamunm/src/espresso
  espresso dir        : /nfs/slac/g/suncatfs/sw/espv18/espresso-dynpy-beef/bin
  pseudo dir          : /afs/slac.stanford.edu/u/if/mamunm/psp/gbrv1.5pbe
  ase-espresso py git : GITVERSION



     Program PWSCF v.5.1rc2 (svn rev. 11289) starts on 19Dec2018 at 14: 2:55 

     This program is part of the open-source Quantum ESPRESSO suite
     for quantum simulation of materials; please cite
         "P. Giannozzi et al., J. Phys.:Condens. Matter 21 395502 (2009);
          URL http://www.quantum-espresso.org", 
     in publications or presentations arising from this work. More details at
     http://www.quantum-espresso.org/quote

     Parallel version (MPI), running on    64 processors
     R & G space division:  proc/nbgrp/npool/nimage =      64
     Reading input from pw.inp
     Message from routine read_cards :
     DEPRECATED: no units specified in CELL_PARAMETERS card

     Current dimensions of program PWSCF are:
     Max number of different atomic species (ntypx) = 10
     Max number of k-points (npk) =  40000
     Max angular momentum in pseudopotentials (lmaxx) =  3
     Presently stress not available with electric field


     **************************************************************************
     Initializing libbeef V0.1.1 with the BEEF-vdW functional.
     Citation: Wellendorff et al., PRB 85, 235149 (2012).
     **************************************************************************


     IMPORTANT: XC functional enforced from input :
     Exchange-correlation      = BEEF-VDW ( 1  4 27 13 2)
     Any further DFT definition will be discarded
     Please, verify this is what you really want


     Subspace diagonalization in iterative solution of the eigenvalue problem:
     a serial algorithm will be used

     Found symmetry operation: I + (  0.5000  0.0000  0.0000)
     This is a supercell, fractional translations are disabled
 
     Parallelization info
     --------------------
     sticks:   dense  smooth     PW     G-vecs:    dense   smooth      PW
     Min          37      14      4                 6957     1740     276
     Max          38      15      5                 6978     1779     299
     Sum        2395     955    283               445881   112839   18187
 
     Generating pointlists ...
     new r_m :   0.4125 (alat units)  0.7795 (a.u.) for type    1


     bravais-lattice index     =            0
     lattice parameter (alat)  =       1.8897  a.u.
     unit-cell volume          =    3747.1846 (a.u.)^3
     number of atoms/cell      =           12
     number of atomic types    =            1
     number of electrons       =       180.00
     number of Kohn-Sham states=          100
     kinetic-energy cutoff     =      36.7493  Ry
     charge density cutoff     =     367.4932  Ry
     convergence threshold     =      1.0E-05
     mixing beta               =       0.3000
     number of iterations used =           10  plain     mixing
     Exchange-correlation      = BEEF-VDW ( 1  4 27 13 2)
     nstep                     =           50


     celldm(1)=   1.889726  celldm(2)=   0.000000  celldm(3)=   0.000000
     celldm(4)=   0.000000  celldm(5)=   0.000000  celldm(6)=   0.000000

     crystal axes: (cart. coord. in units of alat)
               a(1) = (   5.147050   0.000000   0.000000 )  
               a(2) = (   2.573525   4.457476   0.000000 )  
               a(3) = (   0.000000   0.000000  24.202549 )  

     reciprocal axes: (cart. coord. in units 2 pi/alat)
               b(1) = (  0.194286 -0.112171  0.000000 )  
               b(2) = (  0.000000  0.224342  0.000000 )  
               b(3) = (  0.000000  0.000000  0.041318 )  


     PseudoPot. # 1 for Mn read from file:
     /afs/slac.stanford.edu/u/if/mamunm/psp/gbrv1.5pbe/Mn.UPF
     MD5 check sum: 82ef2b46521d7a7d9e736dc3972e4928
     Pseudo is Ultrasoft + core correction, Zval = 15.0
     Generated by new atomic code, or converted to UPF format
     Using radial grid of  859 points,  6 beta functions with: 
                l(1) =   0
                l(2) =   0
                l(3) =   1
                l(4) =   1
                l(5) =   2
                l(6) =   2
     Q(r) pseudized with  8 coefficients,  rinner =    0.950   0.950   0.950
                                                       0.950   0.950

     vdW kernel table read from file vdW_kernel_table
     MD5 check sum: 095c7af220d748ca6e76c0b4c6cfb241

     atomic species   valence    mass     pseudopotential
        Mn1           15.00    54.93804     Mn( 1.00)

     Starting magnetic structure 
     atomic species   magnetization
        Mn1          0.133

     No symmetry found



   Cartesian axes

     site n.     atom                  positions (alat units)
         1           Mn1 tau(   1) = (   1.2867625   0.7429127  10.0000000  )
         2           Mn1 tau(   2) = (   3.8602874   0.7429127  10.0000000  )
         3           Mn1 tau(   3) = (   2.5735249   2.9716506  10.0000000  )
         4           Mn1 tau(   4) = (   5.1470499   2.9716506  10.0000000  )
         5           Mn1 tau(   5) = (   5.1470499   1.4858253  12.1012743  )
         6           Mn1 tau(   6) = (   2.5735249   1.4858253  12.1012743  )
         7           Mn1 tau(   7) = (   6.4338123   3.7145633  12.1012743  )
         8           Mn1 tau(   8) = (   3.8602874   3.7145633  12.1012743  )
         9           Mn1 tau(   9) = (   0.0000000   0.0000000  14.2025486  )
        10           Mn1 tau(  10) = (   2.5735249   0.0000000  14.2025486  )
        11           Mn1 tau(  11) = (   1.2867625   2.2287380  14.2025486  )
        12           Mn1 tau(  12) = (   3.8602874   2.2287380  14.2025486  )

     number of k points=    40  Fermi-Dirac smearing, width (Ry)=  0.0110
                       cart. coord. in units 2pi/alat
        k(    1) = (   0.0000000   0.0000000   0.0000000), wk =   0.0277778
        k(    2) = (   0.0000000   0.0373904   0.0000000), wk =   0.0555556
        k(    3) = (   0.0000000   0.0747807   0.0000000), wk =   0.0555556
        k(    4) = (   0.0000000  -0.1121711   0.0000000), wk =   0.0277778
        k(    5) = (   0.0323810  -0.0186952   0.0000000), wk =   0.0555556
        k(    6) = (   0.0323810   0.0186952   0.0000000), wk =   0.0555556
        k(    7) = (   0.0323810   0.0560856   0.0000000), wk =   0.0555556
        k(    8) = (   0.0323810  -0.1308663   0.0000000), wk =   0.0555556
        k(    9) = (   0.0323810  -0.0934759   0.0000000), wk =   0.0555556
        k(   10) = (   0.0323810  -0.0560856   0.0000000), wk =   0.0555556
        k(   11) = (   0.0647620  -0.0373904   0.0000000), wk =   0.0555556
        k(   12) = (   0.0647620   0.0000000   0.0000000), wk =   0.0555556
        k(   13) = (   0.0647620   0.0373904   0.0000000), wk =   0.0555556
        k(   14) = (   0.0647620  -0.1495615   0.0000000), wk =   0.0555556
        k(   15) = (   0.0647620  -0.1121711   0.0000000), wk =   0.0555556
        k(   16) = (   0.0647620  -0.0747807   0.0000000), wk =   0.0555556
        k(   17) = (  -0.0971430   0.0560856   0.0000000), wk =   0.0277778
        k(   18) = (  -0.0971430   0.0934759   0.0000000), wk =   0.0555556
        k(   19) = (  -0.0971430   0.1308663   0.0000000), wk =   0.0555556
        k(   20) = (  -0.0971430  -0.0560856   0.0000000), wk =   0.0277778
        k(   21) = (   0.0000000   0.0000000   0.0000000), wk =   0.0277778
        k(   22) = (   0.0000000   0.0373904   0.0000000), wk =   0.0555556
        k(   23) = (   0.0000000   0.0747807   0.0000000), wk =   0.0555556
        k(   24) = (   0.0000000  -0.1121711   0.0000000), wk =   0.0277778
        k(   25) = (   0.0323810  -0.0186952   0.0000000), wk =   0.0555556
        k(   26) = (   0.0323810   0.0186952   0.0000000), wk =   0.0555556
        k(   27) = (   0.0323810   0.0560856   0.0000000), wk =   0.0555556
        k(   28) = (   0.0323810  -0.1308663   0.0000000), wk =   0.0555556
        k(   29) = (   0.0323810  -0.0934759   0.0000000), wk =   0.0555556
        k(   30) = (   0.0323810  -0.0560856   0.0000000), wk =   0.0555556
        k(   31) = (   0.0647620  -0.0373904   0.0000000), wk =   0.0555556
        k(   32) = (   0.0647620   0.0000000   0.0000000), wk =   0.0555556
        k(   33) = (   0.0647620   0.0373904   0.0000000), wk =   0.0555556
        k(   34) = (   0.0647620  -0.1495615   0.0000000), wk =   0.0555556
        k(   35) = (   0.0647620  -0.1121711   0.0000000), wk =   0.0555556
        k(   36) = (   0.0647620  -0.0747807   0.0000000), wk =   0.0555556
        k(   37) = (  -0.0971430   0.0560856   0.0000000), wk =   0.0277778
        k(   38) = (  -0.0971430   0.0934759   0.0000000), wk =   0.0555556
        k(   39) = (  -0.0971430   0.1308663   0.0000000), wk =   0.0555556
        k(   40) = (  -0.0971430  -0.0560856   0.0000000), wk =   0.0277778

     Dense  grid:   445881 G-vectors     FFT dimensions: (  60,  60, 288)

     Smooth grid:   112839 G-vectors     FFT dimensions: (  40,  40, 180)

     Largest allocated arrays     est. size (Mb)     dimensions
        Kohn-Sham Wavefunctions         0.36 Mb     (     236,  100)
        NL pseudopotentials             0.78 Mb     (     236,  216)
        Each V/rho on FFT grid          0.55 Mb     (   18000,   2)
        Each G-vector array             0.05 Mb     (    6978)
        G-vector shells                 0.03 Mb     (    3372)
     Largest temporary arrays     est. size (Mb)     dimensions
        Auxiliary wavefunctions         1.44 Mb     (     236,  400)
        Each subspace H/S matrix        2.44 Mb     (     400,  400)
        Each <psi_i|beta_j> matrix      0.33 Mb     (     216,  100)
        Arrays for rho mixing           2.75 Mb     (   18000,   10)

     Check: negative/imaginary core charge=   -0.000010    0.000000

     Initial potential from superposition of free atoms
     Check: negative starting charge=(component1):   -0.001661
     Check: negative starting charge=(component2):   -0.001270

     starting charge  173.99898, renormalised to  180.00000

     negative rho (up, down):  1.719E-03 1.314E-03


     ************************************************************************
     *
     * You are using vdW-DF for exchange-correlation in this calculation.
     * Please cite the following three references that made this development
     * possible:
     *
     *   M. Dion, H. Rydberg, E. Schroder, D. C. Langreth, and
     *   B. I. Lundqvist, Phys. Rev. Lett. 92, 246401 (2004).
     *
     *   T. Thonhauser, V. R. Cooper, S. Li, A. Puzder, P. Hyldgaard, and
     *   D. C. Langreth, Phys. Rev. B 76, 125112 (2007).
     *
     *   G. Roman-Perez and J. M. Soler, Phys. Rev. Lett. 103, 096102 (2009).
     *
     *
     * If you are using vdW-DF2, please also cite:
     *
     *   K. Lee, E. D. Murray, L. Kong, B. I. Lundqvist, and
     *   D. C. Langreth, Phys. Rev. B 82, 081101(R) (2010).
     *
     *
     * If you are calculating the stress with vdW-DF, please also cite:
     *
     *   R. Sabatini, E. Kucukbenli, B. Kolb, T. Thonhauser, and
     *   S. de Gironcoli, J. Phys.: Condens. Matter 24, 424209 (2012).
     *
     ************************************************************************

     Carrying out vdW-DF run using the following parameters:

     Nqs =      20    Nr_points =    1024   r_max =   100.000
     q_mesh =
               0.00001000     0.04494208     0.09755937     0.15916263
               0.23128650     0.31572767     0.41458969     0.53033537
               0.66584808     0.82450364     1.01025438     1.22772762
               1.48234092     1.78043706     2.12944203     2.53805004
               3.01644009     3.57652955     4.23227104     5.00000000

     Gradients computed in reciprocal space

     ************************************************************************


 
     Adding external electric field

     Computed dipole along edir(3) : 
        Dipole                0.0000 Ry au,          0.0000 Debye
        Dipole field          0.0000 Ry au
 
        Potential amp.       -0.0000 Ry
        Total length         44.5928 bohr
 
 
     Adding external electric field

     Computed dipole along edir(3) : 
        Dipole                0.0000 Ry au,          0.0000 Debye
        Dipole field          0.0000 Ry au
 
        Potential amp.       -0.0000 Ry
        Total length         44.5928 bohr
 
     Starting wfc are  156 randomized atomic wfcs

     total cpu time spent up to now is       25.4 secs

     per-process dynamical memory:    39.2 Mb

     Self-consistent Calculation

     iteration #  1     ecut=    36.75 Ry     beta=0.30
     Davidson diagonalization with overlap
     ethr =  1.00E-02,  avg # of iterations =  2.2

     negative rho (up, down):  1.464E-03 1.117E-03
 
     Adding external electric field

     Computed dipole along edir(3) : 
        Dipole               -0.0011 Ry au,         -0.0027 Debye
        Dipole field         -0.0000 Ry au
 
        Potential amp.        0.0003 Ry
        Total length         44.5928 bohr
 
 
     Adding external electric field

     Computed dipole along edir(3) : 
        Dipole               -0.0011 Ry au,         -0.0027 Debye
        Dipole field         -0.0000 Ry au
 
        Potential amp.        0.0003 Ry
        Total length         44.5928 bohr
 
 
     Magnetic moment per site:
     atom:    1    charge:    5.9287    magn:    0.6933    constr:    0.0000
     atom:    2    charge:    5.9287    magn:    0.6932    constr:    0.0000
     atom:    3    charge:    5.9286    magn:    0.6932    constr:    0.0000
     atom:    4    charge:    5.9286    magn:    0.6932    constr:    0.0000
     atom:    5    charge:    5.9544    magn:    0.6971    constr:    0.0000
     atom:    6    charge:    5.9544    magn:    0.6971    constr:    0.0000
     atom:    7    charge:    5.9545    magn:    0.6972    constr:    0.0000
     atom:    8    charge:    5.9544    magn:    0.6971    constr:    0.0000
     atom:    9    charge:    5.9287    magn:    0.6933    constr:    0.0000
     atom:   10    charge:    5.9287    magn:    0.6933    constr:    0.0000
     atom:   11    charge:    5.9287    magn:    0.6932    constr:    0.0000
     atom:   12    charge:    5.9286    magn:    0.6932    constr:    0.0000

     total cpu time spent up to now is       75.3 secs

     total energy              =   -2541.26399512 Ry
     Harris-Foulkes estimate   =   -2548.37960859 Ry
     estimated scf accuracy    <      16.79505673 Ry

     total magnetization       =    12.12 Bohr mag/cell
     absolute magnetization    =    12.38 Bohr mag/cell

     iteration #  2     ecut=    36.75 Ry     beta=0.30
     Davidson diagonalization with overlap
     ethr =  9.33E-03,  avg # of iterations =  3.6

     negative rho (up, down):  1.654E-03 1.325E-03
 
     Adding external electric field

     Computed dipole along edir(3) : 
        Dipole                0.0027 Ry au,          0.0068 Debye
        Dipole field          0.0000 Ry au
 
        Potential amp.       -0.0008 Ry
        Total length         44.5928 bohr
 
 
     Adding external electric field

     Computed dipole along edir(3) : 
        Dipole                0.0027 Ry au,          0.0068 Debye
        Dipole field          0.0000 Ry au
 
        Potential amp.       -0.0008 Ry
        Total length         44.5928 bohr
 
 
     Magnetic moment per site:
     atom:    1    charge:    5.9788    magn:    0.6835    constr:    0.0000
     atom:    2    charge:    5.9789    magn:    0.6834    constr:    0.0000
     atom:    3    charge:    5.9796    magn:    0.6836    constr:    0.0000
     atom:    4    charge:    5.9789    magn:    0.6833    constr:    0.0000
     atom:    5    charge:    5.9944    magn:    0.6526    constr:    0.0000
     atom:    6    charge:    5.9944    magn:    0.6526    constr:    0.0000
     atom:    7    charge:    5.9942    magn:    0.6527    constr:    0.0000
     atom:    8    charge:    5.9943    magn:    0.6526    constr:    0.0000
     atom:    9    charge:    5.9789    magn:    0.6836    constr:    0.0000
     atom:   10    charge:    5.9793    magn:    0.6843    constr:    0.0000
     atom:   11    charge:    5.9788    magn:    0.6834    constr:    0.0000
     atom:   12    charge:    5.9790    magn:    0.6833    constr:    0.0000

     total cpu time spent up to now is      134.8 secs

     total energy              =   -2544.23800003 Ry
     Harris-Foulkes estimate   =   -2545.54433530 Ry
     estimated scf accuracy    <       3.77098910 Ry

     total magnetization       =    16.73 Bohr mag/cell
     absolute magnetization    =    16.93 Bohr mag/cell

     iteration #  3     ecut=    36.75 Ry     beta=0.30
     Davidson diagonalization with overlap
     ethr =  2.09E-03,  avg # of iterations =  5.5

     negative rho (up, down):  2.133E-03 1.819E-03
 
     Adding external electric field

     Computed dipole along edir(3) : 
        Dipole               -0.0068 Ry au,         -0.0173 Debye
        Dipole field         -0.0000 Ry au
 
        Potential amp.        0.0020 Ry
        Total length         44.5928 bohr
 
 
     Adding external electric field

     Computed dipole along edir(3) : 
        Dipole               -0.0068 Ry au,         -0.0173 Debye
        Dipole field         -0.0000 Ry au
 
        Potential amp.        0.0020 Ry
        Total length         44.5928 bohr
 
 
     Magnetic moment per site:
     atom:    1    charge:    5.9996    magn:    0.6793    constr:    0.0000
     atom:    2    charge:    5.9996    magn:    0.6793    constr:    0.0000
     atom:    3    charge:    5.9999    magn:    0.6796    constr:    0.0000
     atom:    4    charge:    5.9996    magn:    0.6791    constr:    0.0000
     atom:    5    charge:    5.9597    magn:    0.6396    constr:    0.0000
     atom:    6    charge:    5.9597    magn:    0.6396    constr:    0.0000
     atom:    7    charge:    5.9596    magn:    0.6397    constr:    0.0000
     atom:    8    charge:    5.9596    magn:    0.6396    constr:    0.0000
     atom:    9    charge:    5.9998    magn:    0.6793    constr:    0.0000
     atom:   10    charge:    6.0000    magn:    0.6801    constr:    0.0000
     atom:   11    charge:    5.9998    magn:    0.6791    constr:    0.0000
     atom:   12    charge:    5.9999    magn:    0.6790    constr:    0.0000

     total cpu time spent up to now is      205.4 secs

     total energy              =   -2543.31794937 Ry
     Harris-Foulkes estimate   =   -2546.51505548 Ry
     estimated scf accuracy    <      58.11446220 Ry

     total magnetization       =    12.33 Bohr mag/cell
     absolute magnetization    =    12.93 Bohr mag/cell

     iteration #  4     ecut=    36.75 Ry     beta=0.30
     Davidson diagonalization with overlap
     ethr =  2.09E-03,  avg # of iterations =  5.7

     negative rho (up, down):  1.950E-03 1.670E-03
 
     Adding external electric field

     Computed dipole along edir(3) : 
        Dipole                0.2837 Ry au,          0.7211 Debye
        Dipole field          0.0010 Ry au
 
        Potential amp.       -0.0849 Ry
        Total length         44.5928 bohr
 
 
     Adding external electric field

     Computed dipole along edir(3) : 
        Dipole                0.2837 Ry au,          0.7211 Debye
        Dipole field          0.0010 Ry au
 
        Potential amp.       -0.0849 Ry
        Total length         44.5928 bohr
 
 
     Magnetic moment per site:
     atom:    1    charge:    5.9952    magn:    0.6500    constr:    0.0000
     atom:    2    charge:    5.9948    magn:    0.6500    constr:    0.0000
     atom:    3    charge:    5.9920    magn:    0.6498    constr:    0.0000
     atom:    4    charge:    5.9946    magn:    0.6499    constr:    0.0000
     atom:    5    charge:    5.9767    magn:    0.5950    constr:    0.0000
     atom:    6    charge:    5.9774    magn:    0.5955    constr:    0.0000
     atom:    7    charge:    5.9778    magn:    0.5957    constr:    0.0000
     atom:    8    charge:    5.9774    magn:    0.5954    constr:    0.0000
     atom:    9    charge:    5.9891    magn:    0.6488    constr:    0.0000
     atom:   10    charge:    5.9872    magn:    0.6491    constr:    0.0000
     atom:   11    charge:    5.9892    magn:    0.6486    constr:    0.0000
     atom:   12    charge:    5.9886    magn:    0.6483    constr:    0.0000

     total cpu time spent up to now is      274.4 secs

     total energy              =   -2544.94550530 Ry
     Harris-Foulkes estimate   =   -2545.03989563 Ry
     estimated scf accuracy    <       1.94018885 Ry

     total magnetization       =    16.20 Bohr mag/cell
     absolute magnetization    =    16.33 Bohr mag/cell

     iteration #  5     ecut=    36.75 Ry     beta=0.30
     Davidson diagonalization with overlap
     ethr =  1.08E-03,  avg # of iterations =  2.9

     negative rho (up, down):  2.082E-03 1.867E-03
 
     Adding external electric field

     Computed dipole along edir(3) : 
        Dipole               -0.0156 Ry au,         -0.0398 Debye
        Dipole field         -0.0001 Ry au
 
        Potential amp.        0.0047 Ry
        Total length         44.5928 bohr
 
 
     Adding external electric field

     Computed dipole along edir(3) : 
        Dipole               -0.0156 Ry au,         -0.0398 Debye
        Dipole field         -0.0001 Ry au
 
        Potential amp.        0.0047 Ry
        Total length         44.5928 bohr
 
 
     Magnetic moment per site:
     atom:    1    charge:    5.9919    magn:    0.6490    constr:    0.0000
     atom:    2    charge:    5.9916    magn:    0.6489    constr:    0.0000
     atom:    3    charge:    5.9892    magn:    0.6488    constr:    0.0000
     atom:    4    charge:    5.9914    magn:    0.6488    constr:    0.0000
     atom:    5    charge:    5.9773    magn:    0.5928    constr:    0.0000
     atom:    6    charge:    5.9779    magn:    0.5933    constr:    0.0000
     atom:    7    charge:    5.9783    magn:    0.5935    constr:    0.0000
     atom:    8    charge:    5.9780    magn:    0.5933    constr:    0.0000
     atom:    9    charge:    5.9917    magn:    0.6465    constr:    0.0000
     atom:   10    charge:    5.9899    magn:    0.6467    constr:    0.0000
     atom:   11    charge:    5.9917    magn:    0.6462    constr:    0.0000
     atom:   12    charge:    5.9912    magn:    0.6460    constr:    0.0000

     total cpu time spent up to now is      319.9 secs

     total energy              =   -2544.83598688 Ry
     Harris-Foulkes estimate   =   -2545.15369709 Ry
     estimated scf accuracy    <      17.50449468 Ry

     total magnetization       =    15.35 Bohr mag/cell
     absolute magnetization    =    15.76 Bohr mag/cell

     iteration #  6     ecut=    36.75 Ry     beta=0.30
     Davidson diagonalization with overlap
     ethr =  1.08E-03,  avg # of iterations =  2.4

     negative rho (up, down):  2.041E-03 1.796E-03
 
     Adding external electric field

     Computed dipole along edir(3) : 
        Dipole               -0.0047 Ry au,         -0.0121 Debye
        Dipole field         -0.0000 Ry au
 
        Potential amp.        0.0014 Ry
        Total length         44.5928 bohr
 
 
     Adding external electric field

     Computed dipole along edir(3) : 
        Dipole               -0.0047 Ry au,         -0.0121 Debye
        Dipole field         -0.0000 Ry au
 
        Potential amp.        0.0014 Ry
        Total length         44.5928 bohr
 
 
     Magnetic moment per site:
     atom:    1    charge:    5.9811    magn:    0.6123    constr:    0.0000
     atom:    2    charge:    5.9836    magn:    0.6131    constr:    0.0000
     atom:    3    charge:    5.9970    magn:    0.6131    constr:    0.0000
     atom:    4    charge:    5.9844    magn:    0.6129    constr:    0.0000
     atom:    5    charge:    5.9806    magn:    0.5615    constr:    0.0000
     atom:    6    charge:    5.9780    magn:    0.5619    constr:    0.0000
     atom:    7    charge:    5.9751    magn:    0.5612    constr:    0.0000
     atom:    8    charge:    5.9776    magn:    0.5618    constr:    0.0000
     atom:    9    charge:    5.9859    magn:    0.6302    constr:    0.0000
     atom:   10    charge:    5.9939    magn:    0.6287    constr:    0.0000
     atom:   11    charge:    5.9857    magn:    0.6299    constr:    0.0000
     atom:   12    charge:    5.9885    magn:    0.6295    constr:    0.0000

     total cpu time spent up to now is      364.6 secs

     total energy              =   -2544.99319003 Ry
     Harris-Foulkes estimate   =   -2544.99481413 Ry
     estimated scf accuracy    <       0.10373932 Ry

     total magnetization       =    15.25 Bohr mag/cell
     absolute magnetization    =    15.39 Bohr mag/cell

     iteration #  7     ecut=    36.75 Ry     beta=0.30
     Davidson diagonalization with overlap
     ethr =  5.76E-05,  avg # of iterations =  6.0

     negative rho (up, down):  2.061E-03 1.752E-03
 
     Adding external electric field

     Computed dipole along edir(3) : 
        Dipole               -0.0116 Ry au,         -0.0294 Debye
        Dipole field         -0.0000 Ry au
 
        Potential amp.        0.0035 Ry
        Total length         44.5928 bohr
 
 
     Adding external electric field

     Computed dipole along edir(3) : 
        Dipole               -0.0116 Ry au,         -0.0294 Debye
        Dipole field         -0.0000 Ry au
 
        Potential amp.        0.0035 Ry
        Total length         44.5928 bohr
 
 
     Magnetic moment per site:
     atom:    1    charge:    5.9835    magn:    0.5700    constr:    0.0000
     atom:    2    charge:    5.9831    magn:    0.5720    constr:    0.0000
     atom:    3    charge:    5.9802    magn:    0.5687    constr:    0.0000
     atom:    4    charge:    5.9832    magn:    0.5717    constr:    0.0000
     atom:    5    charge:    5.9779    magn:    0.5168    constr:    0.0000
     atom:    6    charge:    5.9776    magn:    0.5186    constr:    0.0000
     atom:    7    charge:    5.9777    magn:    0.5178    constr:    0.0000
     atom:    8    charge:    5.9775    magn:    0.5184    constr:    0.0000
     atom:    9    charge:    5.9861    magn:    0.6081    constr:    0.0000
     atom:   10    charge:    5.9849    magn:    0.6029    constr:    0.0000
     atom:   11    charge:    5.9860    magn:    0.6076    constr:    0.0000
     atom:   12    charge:    5.9854    magn:    0.6067    constr:    0.0000

     total cpu time spent up to now is      441.3 secs

     total energy              =   -2545.00593928 Ry
     Harris-Foulkes estimate   =   -2545.05350421 Ry
     estimated scf accuracy    <       1.42774278 Ry

     total magnetization       =    15.17 Bohr mag/cell
     absolute magnetization    =    15.33 Bohr mag/cell

     iteration #  8     ecut=    36.75 Ry     beta=0.30
     Davidson diagonalization with overlap
     ethr =  5.76E-05,  avg # of iterations =  6.1

     negative rho (up, down):  2.067E-03 1.765E-03
 
     Adding external electric field

     Computed dipole along edir(3) : 
        Dipole               -0.0146 Ry au,         -0.0372 Debye
        Dipole field         -0.0000 Ry au
 
        Potential amp.        0.0044 Ry
        Total length         44.5928 bohr
 
 
     Adding external electric field

     Computed dipole along edir(3) : 
        Dipole               -0.0146 Ry au,         -0.0372 Debye
        Dipole field         -0.0000 Ry au
 
        Potential amp.        0.0044 Ry
        Total length         44.5928 bohr
 
 
     Magnetic moment per site:
     atom:    1    charge:    5.9871    magn:    0.5611    constr:    0.0000
     atom:    2    charge:    5.9863    magn:    0.5635    constr:    0.0000
     atom:    3    charge:    5.9879    magn:    0.5585    constr:    0.0000
     atom:    4    charge:    5.9857    magn:    0.5632    constr:    0.0000
     atom:    5    charge:    5.9755    magn:    0.4859    constr:    0.0000
     atom:    6    charge:    5.9789    magn:    0.4885    constr:    0.0000
     atom:    7    charge:    5.9808    magn:    0.4879    constr:    0.0000
     atom:    8    charge:    5.9794    magn:    0.4884    constr:    0.0000
     atom:    9    charge:    5.9858    magn:    0.5922    constr:    0.0000
     atom:   10    charge:    5.9836    magn:    0.5856    constr:    0.0000
     atom:   11    charge:    5.9860    magn:    0.5916    constr:    0.0000
     atom:   12    charge:    5.9861    magn:    0.5908    constr:    0.0000

     total cpu time spent up to now is      511.4 secs

     total energy              =   -2545.02960387 Ry
     Harris-Foulkes estimate   =   -2545.04388908 Ry
     estimated scf accuracy    <       1.37336294 Ry

     total magnetization       =    14.65 Bohr mag/cell
     absolute magnetization    =    14.87 Bohr mag/cell

     iteration #  9     ecut=    36.75 Ry     beta=0.30
     Davidson diagonalization with overlap
     ethr =  5.76E-05,  avg # of iterations =  1.1

     negative rho (up, down):  2.121E-03 1.783E-03
 
     Adding external electric field

     Computed dipole along edir(3) : 
        Dipole               -0.0117 Ry au,         -0.0297 Debye
        Dipole field         -0.0000 Ry au
 
        Potential amp.        0.0035 Ry
        Total length         44.5928 bohr
 
 
     Adding external electric field

     Computed dipole along edir(3) : 
        Dipole               -0.0117 Ry au,         -0.0297 Debye
        Dipole field         -0.0000 Ry au
 
        Potential amp.        0.0035 Ry
        Total length         44.5928 bohr
 
 
     Magnetic moment per site:
     atom:    1    charge:    5.9875    magn:    0.5583    constr:    0.0000
     atom:    2    charge:    5.9878    magn:    0.5607    constr:    0.0000
     atom:    3    charge:    5.9868    magn:    0.5572    constr:    0.0000
     atom:    4    charge:    5.9880    magn:    0.5601    constr:    0.0000
     atom:    5    charge:    5.9794    magn:    0.4724    constr:    0.0000
     atom:    6    charge:    5.9789    magn:    0.4761    constr:    0.0000
     atom:    7    charge:    5.9786    magn:    0.4759    constr:    0.0000
     atom:    8    charge:    5.9789    magn:    0.4761    constr:    0.0000
     atom:    9    charge:    5.9855    magn:    0.5861    constr:    0.0000
     atom:   10    charge:    5.9864    magn:    0.5787    constr:    0.0000
     atom:   11    charge:    5.9855    magn:    0.5855    constr:    0.0000
     atom:   12    charge:    5.9856    magn:    0.5849    constr:    0.0000

     total cpu time spent up to now is      552.5 secs

     total energy              =   -2545.03349775 Ry
     Harris-Foulkes estimate   =   -2545.03647700 Ry
     estimated scf accuracy    <       0.31809752 Ry

     total magnetization       =    14.23 Bohr mag/cell
     absolute magnetization    =    14.46 Bohr mag/cell

     iteration # 10     ecut=    36.75 Ry     beta=0.30
     Davidson diagonalization with overlap
     ethr =  5.76E-05,  avg # of iterations =  3.5

     negative rho (up, down):  2.112E-03 1.790E-03
 
     Adding external electric field

     Computed dipole along edir(3) : 
        Dipole                0.0043 Ry au,          0.0110 Debye
        Dipole field          0.0000 Ry au
 
        Potential amp.       -0.0013 Ry
        Total length         44.5928 bohr
 
 
     Adding external electric field

     Computed dipole along edir(3) : 
        Dipole                0.0043 Ry au,          0.0110 Debye
        Dipole field          0.0000 Ry au
 
        Potential amp.       -0.0013 Ry
        Total length         44.5928 bohr
 
 
     Magnetic moment per site:
     atom:    1    charge:    5.9889    magn:    0.5517    constr:    0.0000
     atom:    2    charge:    5.9870    magn:    0.5539    constr:    0.0000
     atom:    3    charge:    5.9883    magn:    0.5525    constr:    0.0000
     atom:    4    charge:    5.9862    magn:    0.5535    constr:    0.0000
     atom:    5    charge:    5.9807    magn:    0.4490    constr:    0.0000
     atom:    6    charge:    5.9792    magn:    0.4530    constr:    0.0000
     atom:    7    charge:    5.9791    magn:    0.4527    constr:    0.0000
     atom:    8    charge:    5.9792    magn:    0.4531    constr:    0.0000
     atom:    9    charge:    5.9875    magn:    0.5782    constr:    0.0000
     atom:   10    charge:    5.9869    magn:    0.5708    constr:    0.0000
     atom:   11    charge:    5.9878    magn:    0.5778    constr:    0.0000
     atom:   12    charge:    5.9867    magn:    0.5773    constr:    0.0000

     total cpu time spent up to now is      600.4 secs

     total energy              =   -2545.03810440 Ry
     Harris-Foulkes estimate   =   -2545.03728877 Ry
     estimated scf accuracy    <       0.07648700 Ry

     total magnetization       =    14.12 Bohr mag/cell
     absolute magnetization    =    14.35 Bohr mag/cell

     iteration # 11     ecut=    36.75 Ry     beta=0.30
     Davidson diagonalization with overlap
     ethr =  4.25E-05,  avg # of iterations =  1.7

     negative rho (up, down):  2.123E-03 1.797E-03
 
     Adding external electric field

     Computed dipole along edir(3) : 
        Dipole                0.0091 Ry au,          0.0231 Debye
        Dipole field          0.0000 Ry au
 
        Potential amp.       -0.0027 Ry
        Total length         44.5928 bohr
 
 
     Adding external electric field

     Computed dipole along edir(3) : 
        Dipole                0.0091 Ry au,          0.0231 Debye
        Dipole field          0.0000 Ry au
 
        Potential amp.       -0.0027 Ry
        Total length         44.5928 bohr
 
 
     Magnetic moment per site:
     atom:    1    charge:    5.9871    magn:    0.5483    constr:    0.0000
     atom:    2    charge:    5.9875    magn:    0.5496    constr:    0.0000
     atom:    3    charge:    5.9877    magn:    0.5501    constr:    0.0000
     atom:    4    charge:    5.9875    magn:    0.5491    constr:    0.0000
     atom:    5    charge:    5.9795    magn:    0.4356    constr:    0.0000
     atom:    6    charge:    5.9798    magn:    0.4394    constr:    0.0000
     atom:    7    charge:    5.9800    magn:    0.4389    constr:    0.0000
     atom:    8    charge:    5.9799    magn:    0.4394    constr:    0.0000
     atom:    9    charge:    5.9877    magn:    0.5745    constr:    0.0000
     atom:   10    charge:    5.9880    magn:    0.5666    constr:    0.0000
     atom:   11    charge:    5.9877    magn:    0.5743    constr:    0.0000
     atom:   12    charge:    5.9878    magn:    0.5731    constr:    0.0000

     total cpu time spent up to now is      643.3 secs

     total energy              =   -2545.04006864 Ry
     Harris-Foulkes estimate   =   -2545.03962783 Ry
     estimated scf accuracy    <       0.04311339 Ry

     total magnetization       =    13.87 Bohr mag/cell
     absolute magnetization    =    14.11 Bohr mag/cell

     iteration # 12     ecut=    36.75 Ry     beta=0.30
     Davidson diagonalization with overlap
     c_bands:  1 eigenvalues not converged
     ethr =  2.40E-05,  avg # of iterations =  3.7

     negative rho (up, down):  2.072E-03 1.795E-03
 
     Adding external electric field

     Computed dipole along edir(3) : 
        Dipole                0.0062 Ry au,          0.0159 Debye
        Dipole field          0.0000 Ry au
 
        Potential amp.       -0.0019 Ry
        Total length         44.5928 bohr
 
 
     Adding external electric field

     Computed dipole along edir(3) : 
        Dipole                0.0062 Ry au,          0.0159 Debye
        Dipole field          0.0000 Ry au
 
        Potential amp.       -0.0019 Ry
        Total length         44.5928 bohr
 
 
     Magnetic moment per site:
     atom:    1    charge:    5.9883    magn:    0.5390    constr:    0.0000
     atom:    2    charge:    5.9879    magn:    0.5401    constr:    0.0000
     atom:    3    charge:    5.9884    magn:    0.5460    constr:    0.0000
     atom:    4    charge:    5.9878    magn:    0.5398    constr:    0.0000
     atom:    5    charge:    5.9804    magn:    0.3936    constr:    0.0000
     atom:    6    charge:    5.9810    magn:    0.3979    constr:    0.0000
     atom:    7    charge:    5.9802    magn:    0.3975    constr:    0.0000
     atom:    8    charge:    5.9806    magn:    0.3982    constr:    0.0000
     atom:    9    charge:    5.9883    magn:    0.5650    constr:    0.0000
     atom:   10    charge:    5.9887    magn:    0.5570    constr:    0.0000
     atom:   11    charge:    5.9884    magn:    0.5652    constr:    0.0000
     atom:   12    charge:    5.9890    magn:    0.5636    constr:    0.0000

     total cpu time spent up to now is      691.2 secs

     total energy              =   -2545.04451846 Ry
     Harris-Foulkes estimate   =   -2545.04128779 Ry
     estimated scf accuracy    <       0.03036706 Ry

     total magnetization       =    13.73 Bohr mag/cell
     absolute magnetization    =    13.98 Bohr mag/cell

     iteration # 13     ecut=    36.75 Ry     beta=0.30
     Davidson diagonalization with overlap
     ethr =  1.69E-05,  avg # of iterations =  2.8

     negative rho (up, down):  2.065E-03 1.796E-03
 
     Adding external electric field

     Computed dipole along edir(3) : 
        Dipole                0.0057 Ry au,          0.0144 Debye
        Dipole field          0.0000 Ry au
 
        Potential amp.       -0.0017 Ry
        Total length         44.5928 bohr
 
 
     Adding external electric field

     Computed dipole along edir(3) : 
        Dipole                0.0057 Ry au,          0.0144 Debye
        Dipole field          0.0000 Ry au
 
        Potential amp.       -0.0017 Ry
        Total length         44.5928 bohr
 
 
     Magnetic moment per site:
     atom:    1    charge:    5.9875    magn:    0.5348    constr:    0.0000
     atom:    2    charge:    5.9885    magn:    0.5354    constr:    0.0000
     atom:    3    charge:    5.9888    magn:    0.5449    constr:    0.0000
     atom:    4    charge:    5.9886    magn:    0.5352    constr:    0.0000
     atom:    5    charge:    5.9811    magn:    0.3694    constr:    0.0000
     atom:    6    charge:    5.9799    magn:    0.3740    constr:    0.0000
     atom:    7    charge:    5.9811    magn:    0.3731    constr:    0.0000
     atom:    8    charge:    5.9806    magn:    0.3741    constr:    0.0000
     atom:    9    charge:    5.9895    magn:    0.5598    constr:    0.0000
     atom:   10    charge:    5.9890    magn:    0.5525    constr:    0.0000
     atom:   11    charge:    5.9895    magn:    0.5602    constr:    0.0000
     atom:   12    charge:    5.9881    magn:    0.5591    constr:    0.0000

     total cpu time spent up to now is      736.8 secs

     total energy              =   -2545.04718714 Ry
     Harris-Foulkes estimate   =   -2545.04555087 Ry
     estimated scf accuracy    <       0.03120706 Ry

     total magnetization       =    13.30 Bohr mag/cell
     absolute magnetization    =    13.57 Bohr mag/cell

     iteration # 14     ecut=    36.75 Ry     beta=0.30
     Davidson diagonalization with overlap
     ethr =  1.69E-05,  avg # of iterations =  3.4

     negative rho (up, down):  2.094E-03 1.820E-03
 
     Adding external electric field

     Computed dipole along edir(3) : 
        Dipole                0.0014 Ry au,          0.0034 Debye
        Dipole field          0.0000 Ry au
 
        Potential amp.       -0.0004 Ry
        Total length         44.5928 bohr
 
 
     Adding external electric field

     Computed dipole along edir(3) : 
        Dipole                0.0014 Ry au,          0.0034 Debye
        Dipole field          0.0000 Ry au
 
        Potential amp.       -0.0004 Ry
        Total length         44.5928 bohr
 
 
     Magnetic moment per site:
     atom:    1    charge:    5.9899    magn:    0.5188    constr:    0.0000
     atom:    2    charge:    5.9898    magn:    0.5184    constr:    0.0000
     atom:    3    charge:    5.9896    magn:    0.5428    constr:    0.0000
     atom:    4    charge:    5.9898    magn:    0.5184    constr:    0.0000
     atom:    5    charge:    5.9790    magn:    0.2613    constr:    0.0000
     atom:    6    charge:    5.9801    magn:    0.2661    constr:    0.0000
     atom:    7    charge:    5.9796    magn:    0.2636    constr:    0.0000
     atom:    8    charge:    5.9804    magn:    0.2663    constr:    0.0000
     atom:    9    charge:    5.9886    magn:    0.5365    constr:    0.0000
     atom:   10    charge:    5.9892    magn:    0.5318    constr:    0.0000
     atom:   11    charge:    5.9888    magn:    0.5373    constr:    0.0000
     atom:   12    charge:    5.9895    magn:    0.5379    constr:    0.0000

     total cpu time spent up to now is      783.1 secs

     total energy              =   -2545.05105831 Ry
     Harris-Foulkes estimate   =   -2545.04828298 Ry
     estimated scf accuracy    <       0.03384959 Ry

     total magnetization       =    13.05 Bohr mag/cell
     absolute magnetization    =    13.32 Bohr mag/cell

     iteration # 15     ecut=    36.75 Ry     beta=0.30
     Davidson diagonalization with overlap
     c_bands:  2 eigenvalues not converged
     ethr =  1.69E-05,  avg # of iterations =  6.7

     negative rho (up, down):  2.070E-03 1.810E-03
 
     Adding external electric field

     Computed dipole along edir(3) : 
        Dipole                0.0016 Ry au,          0.0040 Debye
        Dipole field          0.0000 Ry au
 
        Potential amp.       -0.0005 Ry
        Total length         44.5928 bohr
 
 
     Adding external electric field

     Computed dipole along edir(3) : 
        Dipole                0.0016 Ry au,          0.0040 Debye
        Dipole field          0.0000 Ry au
 
        Potential amp.       -0.0005 Ry
        Total length         44.5928 bohr
 
 
     Magnetic moment per site:
     atom:    1    charge:    5.9899    magn:    0.5194    constr:    0.0000
     atom:    2    charge:    5.9898    magn:    0.5190    constr:    0.0000
     atom:    3    charge:    5.9896    magn:    0.5425    constr:    0.0000
     atom:    4    charge:    5.9898    magn:    0.5190    constr:    0.0000
     atom:    5    charge:    5.9791    magn:    0.2694    constr:    0.0000
     atom:    6    charge:    5.9802    magn:    0.2742    constr:    0.0000
     atom:    7    charge:    5.9797    magn:    0.2718    constr:    0.0000
     atom:    8    charge:    5.9807    magn:    0.2744    constr:    0.0000
     atom:    9    charge:    5.9885    magn:    0.5374    constr:    0.0000
     atom:   10    charge:    5.9892    magn:    0.5325    constr:    0.0000
     atom:   11    charge:    5.9889    magn:    0.5382    constr:    0.0000
     atom:   12    charge:    5.9894    magn:    0.5387    constr:    0.0000

     total cpu time spent up to now is      845.7 secs

     total energy              =   -2545.05879026 Ry
     Harris-Foulkes estimate   =   -2545.05959226 Ry
     estimated scf accuracy    <       0.08786688 Ry

     total magnetization       =    11.93 Bohr mag/cell
     absolute magnetization    =    12.31 Bohr mag/cell

     iteration # 16     ecut=    36.75 Ry     beta=0.30
     Davidson diagonalization with overlap
     ethr =  1.69E-05,  avg # of iterations =  1.0

     negative rho (up, down):  2.090E-03 1.819E-03
 
     Adding external electric field

     Computed dipole along edir(3) : 
        Dipole                0.0044 Ry au,          0.0112 Debye
        Dipole field          0.0000 Ry au
 
        Potential amp.       -0.0013 Ry
        Total length         44.5928 bohr
 
 
     Adding external electric field

     Computed dipole along edir(3) : 
        Dipole                0.0044 Ry au,          0.0112 Debye
        Dipole field          0.0000 Ry au
 
        Potential amp.       -0.0013 Ry
        Total length         44.5928 bohr
 
 
     Magnetic moment per site:
     atom:    1    charge:    5.9892    magn:    0.5167    constr:    0.0000
     atom:    2    charge:    5.9891    magn:    0.5163    constr:    0.0000
     atom:    3    charge:    5.9889    magn:    0.5413    constr:    0.0000
     atom:    4    charge:    5.9892    magn:    0.5162    constr:    0.0000
     atom:    5    charge:    5.9790    magn:    0.2508    constr:    0.0000
     atom:    6    charge:    5.9799    magn:    0.2554    constr:    0.0000
     atom:    7    charge:    5.9792    magn:    0.2529    constr:    0.0000
     atom:    8    charge:    5.9813    magn:    0.2554    constr:    0.0000
     atom:    9    charge:    5.9887    magn:    0.5362    constr:    0.0000
     atom:   10    charge:    5.9895    magn:    0.5309    constr:    0.0000
     atom:   11    charge:    5.9895    magn:    0.5368    constr:    0.0000
     atom:   12    charge:    5.9890    magn:    0.5373    constr:    0.0000

     total cpu time spent up to now is      886.8 secs

     total energy              =   -2545.06014319 Ry
     Harris-Foulkes estimate   =   -2545.05891927 Ry
     estimated scf accuracy    <       0.08614744 Ry

     total magnetization       =    12.01 Bohr mag/cell
     absolute magnetization    =    12.37 Bohr mag/cell

     iteration # 17     ecut=    36.75 Ry     beta=0.30
     Davidson diagonalization with overlap
     ethr =  1.69E-05,  avg # of iterations =  1.0

     negative rho (up, down):  2.146E-03 1.853E-03
 
     Adding external electric field

     Computed dipole along edir(3) : 
        Dipole               -0.0117 Ry au,         -0.0296 Debye
        Dipole field         -0.0000 Ry au
 
        Potential amp.        0.0035 Ry
        Total length         44.5928 bohr
 
 
     Adding external electric field

     Computed dipole along edir(3) : 
        Dipole               -0.0117 Ry au,         -0.0296 Debye
        Dipole field         -0.0000 Ry au
 
        Potential amp.        0.0035 Ry
        Total length         44.5928 bohr
 
 
     Magnetic moment per site:
     atom:    1    charge:    5.9869    magn:    0.5098    constr:    0.0000
     atom:    2    charge:    5.9884    magn:    0.5078    constr:    0.0000
     atom:    3    charge:    5.9875    magn:    0.5472    constr:    0.0000
     atom:    4    charge:    5.9882    magn:    0.5075    constr:    0.0000
     atom:    5    charge:    5.9798    magn:    0.1040    constr:    0.0000
     atom:    6    charge:    5.9786    magn:    0.1070    constr:    0.0000
     atom:    7    charge:    5.9798    magn:    0.1029    constr:    0.0000
     atom:    8    charge:    5.9794    magn:    0.1060    constr:    0.0000
     atom:    9    charge:    5.9901    magn:    0.5267    constr:    0.0000
     atom:   10    charge:    5.9886    magn:    0.5215    constr:    0.0000
     atom:   11    charge:    5.9893    magn:    0.5267    constr:    0.0000
     atom:   12    charge:    5.9889    magn:    0.5283    constr:    0.0000

     total cpu time spent up to now is      927.9 secs

     total energy              =   -2545.06425990 Ry
     Harris-Foulkes estimate   =   -2545.06044558 Ry
     estimated scf accuracy    <       0.05666200 Ry

     total magnetization       =    11.85 Bohr mag/cell
     absolute magnetization    =    12.23 Bohr mag/cell

     iteration # 18     ecut=    36.75 Ry     beta=0.30
     Davidson diagonalization with overlap
     ethr =  1.69E-05,  avg # of iterations =  5.6

     negative rho (up, down):  2.079E-03 1.817E-03
 
     Adding external electric field

     Computed dipole along edir(3) : 
        Dipole               -0.0095 Ry au,         -0.0241 Debye
        Dipole field         -0.0000 Ry au
 
        Potential amp.        0.0028 Ry
        Total length         44.5928 bohr
 
 
     Adding external electric field

     Computed dipole along edir(3) : 
        Dipole               -0.0095 Ry au,         -0.0241 Debye
        Dipole field         -0.0000 Ry au
 
        Potential amp.        0.0028 Ry
        Total length         44.5928 bohr
 
 
     Magnetic moment per site:
     atom:    1    charge:    5.9869    magn:    0.5069    constr:    0.0000
     atom:    2    charge:    5.9880    magn:    0.5049    constr:    0.0000
     atom:    3    charge:    5.9880    magn:    0.5454    constr:    0.0000
     atom:    4    charge:    5.9883    magn:    0.5047    constr:    0.0000
     atom:    5    charge:    5.9796    magn:    0.0978    constr:    0.0000
     atom:    6    charge:    5.9790    magn:    0.1009    constr:    0.0000
     atom:    7    charge:    5.9797    magn:    0.0968    constr:    0.0000
     atom:    8    charge:    5.9792    magn:    0.1001    constr:    0.0000
     atom:    9    charge:    5.9897    magn:    0.5242    constr:    0.0000
     atom:   10    charge:    5.9893    magn:    0.5192    constr:    0.0000
     atom:   11    charge:    5.9891    magn:    0.5243    constr:    0.0000
     atom:   12    charge:    5.9887    magn:    0.5259    constr:    0.0000

     total cpu time spent up to now is      990.4 secs

     total energy              =   -2545.07600187 Ry
     Harris-Foulkes estimate   =   -2545.07563245 Ry
     estimated scf accuracy    <       0.04463859 Ry

     total magnetization       =    10.56 Bohr mag/cell
     absolute magnetization    =    11.88 Bohr mag/cell

     iteration # 19     ecut=    36.75 Ry     beta=0.30
     Davidson diagonalization with overlap
     ethr =  1.69E-05,  avg # of iterations =  1.1

     negative rho (up, down):  2.095E-03 1.837E-03
 
     Adding external electric field

     Computed dipole along edir(3) : 
        Dipole               -0.0154 Ry au,         -0.0391 Debye
        Dipole field         -0.0001 Ry au
 
        Potential amp.        0.0046 Ry
        Total length         44.5928 bohr
 
 
     Adding external electric field

     Computed dipole along edir(3) : 
        Dipole               -0.0154 Ry au,         -0.0391 Debye
        Dipole field         -0.0001 Ry au
 
        Potential amp.        0.0046 Ry
        Total length         44.5928 bohr
 
 
     Magnetic moment per site:
     atom:    1    charge:    5.9864    magn:    0.5032    constr:    0.0000
     atom:    2    charge:    5.9880    magn:    0.5011    constr:    0.0000
     atom:    3    charge:    5.9878    magn:    0.5458    constr:    0.0000
     atom:    4    charge:    5.9881    magn:    0.5010    constr:    0.0000
     atom:    5    charge:    5.9792    magn:    0.0569    constr:    0.0000
     atom:    6    charge:    5.9782    magn:    0.0597    constr:    0.0000
     atom:    7    charge:    5.9795    magn:    0.0554    constr:    0.0000
     atom:    8    charge:    5.9790    magn:    0.0586    constr:    0.0000
     atom:    9    charge:    5.9900    magn:    0.5218    constr:    0.0000
     atom:   10    charge:    5.9888    magn:    0.5170    constr:    0.0000
     atom:   11    charge:    5.9893    magn:    0.5218    constr:    0.0000
     atom:   12    charge:    5.9886    magn:    0.5236    constr:    0.0000

     total cpu time spent up to now is     1031.0 secs

     total energy              =   -2545.07936805 Ry
     Harris-Foulkes estimate   =   -2545.07616743 Ry
     estimated scf accuracy    <       0.04487711 Ry

     total magnetization       =    10.49 Bohr mag/cell
     absolute magnetization    =    11.85 Bohr mag/cell

     iteration # 20     ecut=    36.75 Ry     beta=0.30
     Davidson diagonalization with overlap
     ethr =  1.69E-05,  avg # of iterations =  1.0

     negative rho (up, down):  2.264E-03 1.905E-03
 
     Adding external electric field

     Computed dipole along edir(3) : 
        Dipole                0.0040 Ry au,          0.0101 Debye
        Dipole field          0.0000 Ry au
 
        Potential amp.       -0.0012 Ry
        Total length         44.5928 bohr
 
 
     Adding external electric field

     Computed dipole along edir(3) : 
        Dipole                0.0040 Ry au,          0.0101 Debye
        Dipole field          0.0000 Ry au
 
        Potential amp.       -0.0012 Ry
        Total length         44.5928 bohr
 
 
     Magnetic moment per site:
     atom:    1    charge:    5.9880    magn:    0.5065    constr:    0.0000
     atom:    2    charge:    5.9880    magn:    0.5052    constr:    0.0000
     atom:    3    charge:    5.9879    magn:    0.5426    constr:    0.0000
     atom:    4    charge:    5.9881    magn:    0.5047    constr:    0.0000
     atom:    5    charge:    5.9792    magn:    0.1187    constr:    0.0000
     atom:    6    charge:    5.9788    magn:    0.1203    constr:    0.0000
     atom:    7    charge:    5.9800    magn:    0.1180    constr:    0.0000
     atom:    8    charge:    5.9793    magn:    0.1206    constr:    0.0000
     atom:    9    charge:    5.9897    magn:    0.5315    constr:    0.0000
     atom:   10    charge:    5.9896    magn:    0.5258    constr:    0.0000
     atom:   11    charge:    5.9897    magn:    0.5317    constr:    0.0000
     atom:   12    charge:    5.9892    magn:    0.5321    constr:    0.0000

     total cpu time spent up to now is     1072.0 secs

     total energy              =   -2545.07253440 Ry
     Harris-Foulkes estimate   =   -2545.08008026 Ry
     estimated scf accuracy    <       0.02745241 Ry

     total magnetization       =    10.15 Bohr mag/cell
     absolute magnetization    =    11.91 Bohr mag/cell

     iteration # 21     ecut=    36.75 Ry     beta=0.30
     Davidson diagonalization with overlap
     ethr =  1.53E-05,  avg # of iterations =  1.0

     negative rho (up, down):  2.548E-03 2.069E-03
 
     Adding external electric field

     Computed dipole along edir(3) : 
        Dipole               -0.0024 Ry au,         -0.0060 Debye
        Dipole field         -0.0000 Ry au
 
        Potential amp.        0.0007 Ry
        Total length         44.5928 bohr
 
 
     Adding external electric field

     Computed dipole along edir(3) : 
        Dipole               -0.0024 Ry au,         -0.0060 Debye
        Dipole field         -0.0000 Ry au
 
        Potential amp.        0.0007 Ry
        Total length         44.5928 bohr
 
 
     Magnetic moment per site:
     atom:    1    charge:    5.9878    magn:    0.5183    constr:    0.0000
     atom:    2    charge:    5.9890    magn:    0.5175    constr:    0.0000
     atom:    3    charge:    5.9862    magn:    0.5467    constr:    0.0000
     atom:    4    charge:    5.9894    magn:    0.5170    constr:    0.0000
     atom:    5    charge:    5.9816    magn:    0.1941    constr:    0.0000
     atom:    6    charge:    5.9792    magn:    0.1971    constr:    0.0000
     atom:    7    charge:    5.9799    magn:    0.1951    constr:    0.0000
     atom:    8    charge:    5.9801    magn:    0.1970    constr:    0.0000
     atom:    9    charge:    5.9890    magn:    0.5408    constr:    0.0000
     atom:   10    charge:    5.9905    magn:    0.5341    constr:    0.0000
     atom:   11    charge:    5.9889    magn:    0.5409    constr:    0.0000
     atom:   12    charge:    5.9890    magn:    0.5408    constr:    0.0000

     total cpu time spent up to now is     1113.3 secs

     total energy              =   -2545.06307107 Ry
     Harris-Foulkes estimate   =   -2545.07386817 Ry
     estimated scf accuracy    <       0.03078577 Ry

     total magnetization       =    10.69 Bohr mag/cell
     absolute magnetization    =    11.96 Bohr mag/cell

     iteration # 22     ecut=    36.75 Ry     beta=0.30
     Davidson diagonalization with overlap
     ethr =  1.53E-05,  avg # of iterations =  5.0

     negative rho (up, down):  2.937E-03 2.324E-03
 
     Adding external electric field

     Computed dipole along edir(3) : 
        Dipole               -0.0006 Ry au,         -0.0015 Debye
        Dipole field         -0.0000 Ry au
 
        Potential amp.        0.0002 Ry
        Total length         44.5928 bohr
 
 
     Adding external electric field

     Computed dipole along edir(3) : 
        Dipole               -0.0006 Ry au,         -0.0015 Debye
        Dipole field         -0.0000 Ry au
 
        Potential amp.        0.0002 Ry
        Total length         44.5928 bohr
 
 
     Magnetic moment per site:
     atom:    1    charge:    5.9908    magn:    0.5167    constr:    0.0000
     atom:    2    charge:    5.9885    magn:    0.5175    constr:    0.0000
     atom:    3    charge:    5.9882    magn:    0.5394    constr:    0.0000
     atom:    4    charge:    5.9884    magn:    0.5168    constr:    0.0000
     atom:    5    charge:    5.9800    magn:    0.2655    constr:    0.0000
     atom:    6    charge:    5.9803    magn:    0.2697    constr:    0.0000
     atom:    7    charge:    5.9797    magn:    0.2693    constr:    0.0000
     atom:    8    charge:    5.9794    magn:    0.2708    constr:    0.0000
     atom:    9    charge:    5.9900    magn:    0.5420    constr:    0.0000
     atom:   10    charge:    5.9885    magn:    0.5344    constr:    0.0000
     atom:   11    charge:    5.9904    magn:    0.5423    constr:    0.0000
     atom:   12    charge:    5.9885    magn:    0.5420    constr:    0.0000

     total cpu time spent up to now is     1166.4 secs

     total energy              =   -2545.05468858 Ry
     Harris-Foulkes estimate   =   -2545.06714122 Ry
     estimated scf accuracy    <       0.05657399 Ry

     total magnetization       =    11.40 Bohr mag/cell
     absolute magnetization    =    12.03 Bohr mag/cell

     iteration # 23     ecut=    36.75 Ry     beta=0.30
     Davidson diagonalization with overlap
     ethr =  1.53E-05,  avg # of iterations =  5.3

     negative rho (up, down):  2.273E-03 1.888E-03
 
     Adding external electric field

     Computed dipole along edir(3) : 
        Dipole                0.0032 Ry au,          0.0082 Debye
        Dipole field          0.0000 Ry au
 
        Potential amp.       -0.0010 Ry
        Total length         44.5928 bohr
 
 
     Adding external electric field

     Computed dipole along edir(3) : 
        Dipole                0.0032 Ry au,          0.0082 Debye
        Dipole field          0.0000 Ry au
 
        Potential amp.       -0.0010 Ry
        Total length         44.5928 bohr
 
 
     Magnetic moment per site:
     atom:    1    charge:    5.9884    magn:    0.5044    constr:    0.0000
     atom:    2    charge:    5.9876    magn:    0.5037    constr:    0.0000
     atom:    3    charge:    5.9889    magn:    0.5411    constr:    0.0000
     atom:    4    charge:    5.9874    magn:    0.5029    constr:    0.0000
     atom:    5    charge:    5.9797    magn:    0.1219    constr:    0.0000
     atom:    6    charge:    5.9780    magn:    0.1272    constr:    0.0000
     atom:    7    charge:    5.9796    magn:    0.1250    constr:    0.0000
     atom:    8    charge:    5.9794    magn:    0.1269    constr:    0.0000
     atom:    9    charge:    5.9896    magn:    0.5304    constr:    0.0000
     atom:   10    charge:    5.9892    magn:    0.5217    constr:    0.0000
     atom:   11    charge:    5.9897    magn:    0.5306    constr:    0.0000
     atom:   12    charge:    5.9895    magn:    0.5304    constr:    0.0000

     total cpu time spent up to now is     1219.9 secs

     total energy              =   -2545.06403767 Ry
     Harris-Foulkes estimate   =   -2545.05872513 Ry
     estimated scf accuracy    <       0.07106644 Ry

     total magnetization       =    11.98 Bohr mag/cell
     absolute magnetization    =    12.38 Bohr mag/cell

     iteration # 24     ecut=    36.75 Ry     beta=0.30
     Davidson diagonalization with overlap
     ethr =  1.53E-05,  avg # of iterations =  5.5

     negative rho (up, down):  2.233E-03 1.894E-03
 
     Adding external electric field

     Computed dipole along edir(3) : 
        Dipole               -0.0033 Ry au,         -0.0083 Debye
        Dipole field         -0.0000 Ry au
 
        Potential amp.        0.0010 Ry
        Total length         44.5928 bohr
 
 
     Adding external electric field

     Computed dipole along edir(3) : 
        Dipole               -0.0033 Ry au,         -0.0083 Debye
        Dipole field         -0.0000 Ry au
 
        Potential amp.        0.0010 Ry
        Total length         44.5928 bohr
 
 
     Magnetic moment per site:
     atom:    1    charge:    5.9885    magn:    0.4972    constr:    0.0000
     atom:    2    charge:    5.9874    magn:    0.4962    constr:    0.0000
     atom:    3    charge:    5.9877    magn:    0.5405    constr:    0.0000
     atom:    4    charge:    5.9876    magn:    0.4954    constr:    0.0000
     atom:    5    charge:    5.9772    magn:    0.0659    constr:    0.0000
     atom:    6    charge:    5.9800    magn:    0.0724    constr:    0.0000
     atom:    7    charge:    5.9793    magn:    0.0696    constr:    0.0000
     atom:    8    charge:    5.9787    magn:    0.0718    constr:    0.0000
     atom:    9    charge:    5.9895    magn:    0.5244    constr:    0.0000
     atom:   10    charge:    5.9891    magn:    0.5142    constr:    0.0000
     atom:   11    charge:    5.9894    magn:    0.5246    constr:    0.0000
     atom:   12    charge:    5.9906    magn:    0.5242    constr:    0.0000

     total cpu time spent up to now is     1277.5 secs

     total energy              =   -2545.07629625 Ry
     Harris-Foulkes estimate   =   -2545.07330195 Ry
     estimated scf accuracy    <       0.02676511 Ry

     total magnetization       =    10.72 Bohr mag/cell
     absolute magnetization    =    11.80 Bohr mag/cell

     iteration # 25     ecut=    36.75 Ry     beta=0.30
     Davidson diagonalization with overlap
     ethr =  1.49E-05,  avg # of iterations =  3.6

     negative rho (up, down):  2.459E-03 2.067E-03
 
     Adding external electric field

     Computed dipole along edir(3) : 
        Dipole                0.0010 Ry au,          0.0024 Debye
        Dipole field          0.0000 Ry au
 
        Potential amp.       -0.0003 Ry
        Total length         44.5928 bohr
 
 
     Adding external electric field

     Computed dipole along edir(3) : 
        Dipole                0.0010 Ry au,          0.0024 Debye
        Dipole field          0.0000 Ry au
 
        Potential amp.       -0.0003 Ry
        Total length         44.5928 bohr
 
 
     Magnetic moment per site:
     atom:    1    charge:    5.9878    magn:    0.5007    constr:    0.0000
     atom:    2    charge:    5.9883    magn:    0.5005    constr:    0.0000
     atom:    3    charge:    5.9885    magn:    0.5399    constr:    0.0000
     atom:    4    charge:    5.9880    magn:    0.4997    constr:    0.0000
     atom:    5    charge:    5.9785    magn:    0.1215    constr:    0.0000
     atom:    6    charge:    5.9790    magn:    0.1300    constr:    0.0000
     atom:    7    charge:    5.9796    magn:    0.1272    constr:    0.0000
     atom:    8    charge:    5.9789    magn:    0.1294    constr:    0.0000
     atom:    9    charge:    5.9900    magn:    0.5270    constr:    0.0000
     atom:   10    charge:    5.9891    magn:    0.5153    constr:    0.0000
     atom:   11    charge:    5.9900    magn:    0.5271    constr:    0.0000
     atom:   12    charge:    5.9891    magn:    0.5267    constr:    0.0000

     total cpu time spent up to now is     1326.3 secs

     total energy              =   -2545.07076739 Ry
     Harris-Foulkes estimate   =   -2545.07871179 Ry
     estimated scf accuracy    <       0.04028670 Ry

     total magnetization       =    10.23 Bohr mag/cell
     absolute magnetization    =    11.79 Bohr mag/cell

     iteration # 26     ecut=    36.75 Ry     beta=0.30
     Davidson diagonalization with overlap
     ethr =  1.49E-05,  avg # of iterations =  1.0

     negative rho (up, down):  3.233E-03 2.632E-03
 
     Adding external electric field

     Computed dipole along edir(3) : 
        Dipole                0.0298 Ry au,          0.0757 Debye
        Dipole field          0.0001 Ry au
 
        Potential amp.       -0.0089 Ry
        Total length         44.5928 bohr
 
 
     Adding external electric field

     Computed dipole along edir(3) : 
        Dipole                0.0298 Ry au,          0.0757 Debye
        Dipole field          0.0001 Ry au
 
        Potential amp.       -0.0089 Ry
        Total length         44.5928 bohr
 
 
     Magnetic moment per site:
     atom:    1    charge:    5.9923    magn:    0.5049    constr:    0.0000
     atom:    2    charge:    5.9895    magn:    0.5086    constr:    0.0000
     atom:    3    charge:    5.9887    magn:    0.5380    constr:    0.0000
     atom:    4    charge:    5.9914    magn:    0.5073    constr:    0.0000
     atom:    5    charge:    5.9773    magn:    0.2606    constr:    0.0000
     atom:    6    charge:    5.9805    magn:    0.2783    constr:    0.0000
     atom:    7    charge:    5.9786    magn:    0.2757    constr:    0.0000
     atom:    8    charge:    5.9736    magn:    0.2784    constr:    0.0000
     atom:    9    charge:    5.9912    magn:    0.5331    constr:    0.0000
     atom:   10    charge:    5.9900    magn:    0.5127    constr:    0.0000
     atom:   11    charge:    5.9909    magn:    0.5330    constr:    0.0000
     atom:   12    charge:    5.9877    magn:    0.5318    constr:    0.0000

     total cpu time spent up to now is     1366.8 secs

     total energy              =   -2545.04514714 Ry
     Harris-Foulkes estimate   =   -2545.07255067 Ry
     estimated scf accuracy    <       0.02587301 Ry

     total magnetization       =    10.69 Bohr mag/cell
     absolute magnetization    =    11.82 Bohr mag/cell

     iteration # 27     ecut=    36.75 Ry     beta=0.30
     Davidson diagonalization with overlap
     ethr =  1.44E-05,  avg # of iterations =  5.9

     negative rho (up, down):  2.191E-03 1.964E-03
 
     Adding external electric field

     Computed dipole along edir(3) : 
        Dipole                0.0004 Ry au,          0.0009 Debye
        Dipole field          0.0000 Ry au
 
        Potential amp.       -0.0001 Ry
        Total length         44.5928 bohr
 
 
     Adding external electric field

     Computed dipole along edir(3) : 
        Dipole                0.0004 Ry au,          0.0009 Debye
        Dipole field          0.0000 Ry au
 
        Potential amp.       -0.0001 Ry
        Total length         44.5928 bohr
 
 
     Magnetic moment per site:
     atom:    1    charge:    5.9883    magn:    0.5043    constr:    0.0000
     atom:    2    charge:    5.9876    magn:    0.5051    constr:    0.0000
     atom:    3    charge:    5.9880    magn:    0.5470    constr:    0.0000
     atom:    4    charge:    5.9890    magn:    0.5044    constr:    0.0000
     atom:    5    charge:    5.9788    magn:    0.1168    constr:    0.0000
     atom:    6    charge:    5.9782    magn:    0.1303    constr:    0.0000
     atom:    7    charge:    5.9827    magn:    0.1254    constr:    0.0000
     atom:    8    charge:    5.9793    magn:    0.1295    constr:    0.0000
     atom:    9    charge:    5.9894    magn:    0.5285    constr:    0.0000
     atom:   10    charge:    5.9886    magn:    0.5130    constr:    0.0000
     atom:   11    charge:    5.9891    magn:    0.5287    constr:    0.0000
     atom:   12    charge:    5.9891    magn:    0.5282    constr:    0.0000

     total cpu time spent up to now is     1440.2 secs

     total energy              =   -2545.05202179 Ry
     Harris-Foulkes estimate   =   -2545.06681394 Ry
     estimated scf accuracy    <       0.72992890 Ry

     total magnetization       =    11.95 Bohr mag/cell
     absolute magnetization    =    12.31 Bohr mag/cell

     iteration # 28     ecut=    36.75 Ry     beta=0.30
     Davidson diagonalization with overlap
     ethr =  1.44E-05,  avg # of iterations =  5.7

     negative rho (up, down):  2.134E-03 1.887E-03
 
     Adding external electric field

     Computed dipole along edir(3) : 
        Dipole                0.0073 Ry au,          0.0185 Debye
        Dipole field          0.0000 Ry au
 
        Potential amp.       -0.0022 Ry
        Total length         44.5928 bohr
 
 
     Adding external electric field

     Computed dipole along edir(3) : 
        Dipole                0.0073 Ry au,          0.0185 Debye
        Dipole field          0.0000 Ry au
 
        Potential amp.       -0.0022 Ry
        Total length         44.5928 bohr
 
 
     Magnetic moment per site:
     atom:    1    charge:    5.9878    magn:    0.5028    constr:    0.0000
     atom:    2    charge:    5.9889    magn:    0.5025    constr:    0.0000
     atom:    3    charge:    5.9868    magn:    0.5532    constr:    0.0000
     atom:    4    charge:    5.9864    magn:    0.5021    constr:    0.0000
     atom:    5    charge:    5.9771    magn:    0.0468    constr:    0.0000
     atom:    6    charge:    5.9783    magn:    0.0654    constr:    0.0000
     atom:    7    charge:    5.9789    magn:    0.0557    constr:    0.0000
     atom:    8    charge:    5.9830    magn:    0.0615    constr:    0.0000
     atom:    9    charge:    5.9883    magn:    0.5214    constr:    0.0000
     atom:   10    charge:    5.9899    magn:    0.5033    constr:    0.0000
     atom:   11    charge:    5.9922    magn:    0.5209    constr:    0.0000
     atom:   12    charge:    5.9865    magn:    0.5218    constr:    0.0000

     total cpu time spent up to now is     1508.0 secs

     total energy              =   -2545.07613931 Ry
     Harris-Foulkes estimate   =   -2545.07477975 Ry
     estimated scf accuracy    <       0.10538583 Ry

     total magnetization       =    10.71 Bohr mag/cell
     absolute magnetization    =    11.85 Bohr mag/cell

     iteration # 29     ecut=    36.75 Ry     beta=0.30
     Davidson diagonalization with overlap
     ethr =  1.44E-05,  avg # of iterations =  7.2

     negative rho (up, down):  2.347E-03 2.146E-03
 
     Adding external electric field

     Computed dipole along edir(3) : 
        Dipole               -0.0075 Ry au,         -0.0191 Debye
        Dipole field         -0.0000 Ry au
 
        Potential amp.        0.0022 Ry
        Total length         44.5928 bohr
 
 
     Adding external electric field

     Computed dipole along edir(3) : 
        Dipole               -0.0075 Ry au,         -0.0191 Debye
        Dipole field         -0.0000 Ry au
 
        Potential amp.        0.0022 Ry
        Total length         44.5928 bohr
 
 
     Magnetic moment per site:
     atom:    1    charge:    5.9872    magn:    0.5024    constr:    0.0000
     atom:    2    charge:    5.9889    magn:    0.5037    constr:    0.0000
     atom:    3    charge:    5.9878    magn:    0.5555    constr:    0.0000
     atom:    4    charge:    5.9870    magn:    0.5032    constr:    0.0000
     atom:    5    charge:    5.9807    magn:    0.0857    constr:    0.0000
     atom:    6    charge:    5.9788    magn:    0.1160    constr:    0.0000
     atom:    7    charge:    5.9798    magn:    0.1022    constr:    0.0000
     atom:    8    charge:    5.9796    magn:    0.1095    constr:    0.0000
     atom:    9    charge:    5.9900    magn:    0.5180    constr:    0.0000
     atom:   10    charge:    5.9880    magn:    0.4899    constr:    0.0000
     atom:   11    charge:    5.9897    magn:    0.5169    constr:    0.0000
     atom:   12    charge:    5.9894    magn:    0.5174    constr:    0.0000

     total cpu time spent up to now is     1579.5 secs

     total energy              =   -2545.07026169 Ry
     Harris-Foulkes estimate   =   -2545.08508924 Ry
     estimated scf accuracy    <       0.24236303 Ry

     total magnetization       =    10.16 Bohr mag/cell
     absolute magnetization    =    12.11 Bohr mag/cell

     iteration # 30     ecut=    36.75 Ry     beta=0.30
     Davidson diagonalization with overlap
     ethr =  1.44E-05,  avg # of iterations =  6.5

     negative rho (up, down):  2.388E-03 2.139E-03
 
     Adding external electric field

     Computed dipole along edir(3) : 
        Dipole               -0.0131 Ry au,         -0.0333 Debye
        Dipole field         -0.0000 Ry au
 
        Potential amp.        0.0039 Ry
        Total length         44.5928 bohr
 
 
     Adding external electric field

     Computed dipole along edir(3) : 
        Dipole               -0.0131 Ry au,         -0.0333 Debye
        Dipole field         -0.0000 Ry au
 
        Potential amp.        0.0039 Ry
        Total length         44.5928 bohr
 
 
     Magnetic moment per site:
     atom:    1    charge:    5.9879    magn:    0.5017    constr:    0.0000
     atom:    2    charge:    5.9884    magn:    0.5034    constr:    0.0000
     atom:    3    charge:    5.9884    magn:    0.5595    constr:    0.0000
     atom:    4    charge:    5.9866    magn:    0.5029    constr:    0.0000
     atom:    5    charge:    5.9810    magn:    0.0709    constr:    0.0000
     atom:    6    charge:    5.9787    magn:    0.1088    constr:    0.0000
     atom:    7    charge:    5.9799    magn:    0.0911    constr:    0.0000
     atom:    8    charge:    5.9793    magn:    0.0991    constr:    0.0000
     atom:    9    charge:    5.9906    magn:    0.5183    constr:    0.0000
     atom:   10    charge:    5.9891    magn:    0.4819    constr:    0.0000
     atom:   11    charge:    5.9895    magn:    0.5158    constr:    0.0000
     atom:   12    charge:    5.9893    magn:    0.5176    constr:    0.0000

     total cpu time spent up to now is     1636.1 secs

     total energy              =   -2545.07557581 Ry
     Harris-Foulkes estimate   =   -2545.07520747 Ry
     estimated scf accuracy    <       0.12994323 Ry

     total magnetization       =    10.44 Bohr mag/cell
     absolute magnetization    =    11.88 Bohr mag/cell

     iteration # 31     ecut=    36.75 Ry     beta=0.30
     Davidson diagonalization with overlap
     ethr =  1.44E-05,  avg # of iterations =  4.8

     negative rho (up, down):  2.841E-03 2.490E-03
 
     Adding external electric field

     Computed dipole along edir(3) : 
        Dipole               -0.0333 Ry au,         -0.0846 Debye
        Dipole field         -0.0001 Ry au
 
        Potential amp.        0.0100 Ry
        Total length         44.5928 bohr
 
 
     Adding external electric field

     Computed dipole along edir(3) : 
        Dipole               -0.0333 Ry au,         -0.0846 Debye
        Dipole field         -0.0001 Ry au
 
        Potential amp.        0.0100 Ry
        Total length         44.5928 bohr
 
 
     Magnetic moment per site:
     atom:    1    charge:    5.9899    magn:    0.5027    constr:    0.0000
     atom:    2    charge:    5.9881    magn:    0.5082    constr:    0.0000
     atom:    3    charge:    5.9902    magn:    0.5671    constr:    0.0000
     atom:    4    charge:    5.9909    magn:    0.5068    constr:    0.0000
     atom:    5    charge:    5.9819    magn:    0.1349    constr:    0.0000
     atom:    6    charge:    5.9781    magn:    0.1963    constr:    0.0000
     atom:    7    charge:    5.9781    magn:    0.1721    constr:    0.0000
     atom:    8    charge:    5.9808    magn:    0.1822    constr:    0.0000
     atom:    9    charge:    5.9917    magn:    0.5249    constr:    0.0000
     atom:   10    charge:    5.9875    magn:    0.4631    constr:    0.0000
     atom:   11    charge:    5.9906    magn:    0.5203    constr:    0.0000
     atom:   12    charge:    5.9904    magn:    0.5221    constr:    0.0000

     total cpu time spent up to now is     1689.5 secs

     total energy              =   -2545.06523906 Ry
     Harris-Foulkes estimate   =   -2545.07730242 Ry
     estimated scf accuracy    <       0.09672879 Ry

     total magnetization       =    10.34 Bohr mag/cell
     absolute magnetization    =    11.84 Bohr mag/cell

     iteration # 32     ecut=    36.75 Ry     beta=0.30
     Davidson diagonalization with overlap
     ethr =  1.44E-05,  avg # of iterations =  7.3

     negative rho (up, down):  2.275E-03 1.879E-03
 
     Adding external electric field

     Computed dipole along edir(3) : 
        Dipole               -0.0163 Ry au,         -0.0413 Debye
        Dipole field         -0.0001 Ry au
 
        Potential amp.        0.0049 Ry
        Total length         44.5928 bohr
 
 
     Adding external electric field

     Computed dipole along edir(3) : 
        Dipole               -0.0163 Ry au,         -0.0413 Debye
        Dipole field         -0.0001 Ry au
 
        Potential amp.        0.0049 Ry
        Total length         44.5928 bohr
 
 
     Magnetic moment per site:
     atom:    1    charge:    5.9866    magn:    0.5107    constr:    0.0000
     atom:    2    charge:    5.9888    magn:    0.5108    constr:    0.0000
     atom:    3    charge:    5.9894    magn:    0.5536    constr:    0.0000
     atom:    4    charge:    5.9888    magn:    0.5093    constr:    0.0000
     atom:    5    charge:    5.9800    magn:    0.0859    constr:    0.0000
     atom:    6    charge:    5.9790    magn:    0.0995    constr:    0.0000
     atom:    7    charge:    5.9796    magn:    0.0959    constr:    0.0000
     atom:    8    charge:    5.9783    magn:    0.1010    constr:    0.0000
     atom:    9    charge:    5.9884    magn:    0.5376    constr:    0.0000
     atom:   10    charge:    5.9891    magn:    0.5204    constr:    0.0000
     atom:   11    charge:    5.9920    magn:    0.5381    constr:    0.0000
     atom:   12    charge:    5.9874    magn:    0.5371    constr:    0.0000

     total cpu time spent up to now is     1754.8 secs

     total energy              =   -2545.06795292 Ry
     Harris-Foulkes estimate   =   -2545.07163939 Ry
     estimated scf accuracy    <       0.17743253 Ry

     total magnetization       =    10.94 Bohr mag/cell
     absolute magnetization    =    11.77 Bohr mag/cell

     iteration # 33     ecut=    36.75 Ry     beta=0.30
     Davidson diagonalization with overlap
     ethr =  1.44E-05,  avg # of iterations =  6.8

     negative rho (up, down):  2.253E-03 1.899E-03
 
     Adding external electric field

     Computed dipole along edir(3) : 
        Dipole               -0.0011 Ry au,         -0.0028 Debye
        Dipole field         -0.0000 Ry au
 
        Potential amp.        0.0003 Ry
        Total length         44.5928 bohr
 
 
     Adding external electric field

     Computed dipole along edir(3) : 
        Dipole               -0.0011 Ry au,         -0.0028 Debye
        Dipole field         -0.0000 Ry au
 
        Potential amp.        0.0003 Ry
        Total length         44.5928 bohr
 
 
     Magnetic moment per site:
     atom:    1    charge:    5.9865    magn:    0.5113    constr:    0.0000
     atom:    2    charge:    5.9916    magn:    0.5105    constr:    0.0000
     atom:    3    charge:    5.9860    magn:    0.5571    constr:    0.0000
     atom:    4    charge:    5.9900    magn:    0.5092    constr:    0.0000
     atom:    5    charge:    5.9803    magn:    0.0656    constr:    0.0000
     atom:    6    charge:    5.9779    magn:    0.0833    constr:    0.0000
     atom:    7    charge:    5.9782    magn:    0.0766    constr:    0.0000
     atom:    8    charge:    5.9803    magn:    0.0824    constr:    0.0000
     atom:    9    charge:    5.9907    magn:    0.5371    constr:    0.0000
     atom:   10    charge:    5.9916    magn:    0.5166    constr:    0.0000
     atom:   11    charge:    5.9869    magn:    0.5367    constr:    0.0000
     atom:   12    charge:    5.9889    magn:    0.5374    constr:    0.0000

     total cpu time spent up to now is     1827.6 secs

     total energy              =   -2545.07553055 Ry
     Harris-Foulkes estimate   =   -2545.07943281 Ry
     estimated scf accuracy    <       0.18332387 Ry

     total magnetization       =    10.60 Bohr mag/cell
     absolute magnetization    =    12.10 Bohr mag/cell

     iteration # 34     ecut=    36.75 Ry     beta=0.30
     Davidson diagonalization with overlap
     ethr =  1.44E-05,  avg # of iterations =  6.4

     negative rho (up, down):  2.239E-03 1.911E-03
 
[...]
    -5.4729  -3.4419  -2.9911  -2.9906  -2.5993  -2.5991  -2.5793  -2.5783
    -2.3889  -1.9107  -1.9103  -1.5962  -1.1030  -0.9924  -0.9918  -0.8828
    -0.7025  -0.4254  -0.4252  -0.4231  -0.2792  -0.2786  -0.1628  -0.1530
    -0.0760   0.2156   0.2638   0.2640   0.4703   0.7956   0.7958   0.9148
     1.1802   1.1985   1.1991   1.2831   1.2942   1.3417   1.3888   1.5122
     1.5124   1.7107   1.7112   1.7896   1.8640   2.0471   2.2344   2.2565
     2.3179   2.5092   2.5105   2.6796

          k = 0.0648 0.0374 0.0000 ( 14106 PWs)   bands (ev):

   -79.2439 -79.2127 -79.1969 -79.1959 -76.6242 -76.5914 -76.5744 -76.5704
   -76.4768 -76.4431 -76.4261 -76.4255 -48.0720 -48.0409 -48.0252 -48.0247
   -48.0225 -48.0219 -47.9764 -47.8279 -47.8264 -47.7826 -47.7534 -47.7074
   -45.5770 -45.5745 -45.5266 -45.4360 -45.4351 -45.3859 -45.3685 -45.3664
   -45.3193 -45.2907 -45.2886 -45.2638 -45.2500 -45.2466 -45.2393 -45.2253
   -45.2248 -45.1772 -45.1488 -45.1458 -45.1207 -45.1063 -45.1057 -45.0963
    -5.2601  -3.3963  -3.2810  -2.6296  -2.5594  -2.5592  -2.4381  -2.3893
    -2.3890  -1.9993  -1.7155  -1.7152  -1.0647  -1.0647  -0.9863  -0.9455
    -0.7339  -0.7334  -0.5637  -0.5265  -0.1757  -0.1754  -0.0679  -0.0572
    -0.0174   0.1638   0.1872   0.4880   0.4882   0.8413   0.8528   0.8547
     1.0479   1.0759   1.0978   1.2133   1.2173   1.2175   1.3140   1.4246
     1.4760   1.5098   1.5106   1.8742   2.0923   2.0935   2.1458   2.3187
     2.3498   2.3686   2.3698   2.5378

          k = 0.0648-0.1496 0.0000 ( 14076 PWs)   bands (ev):

   -79.2340 -79.2185 -79.2062 -79.1907 -76.6137 -76.5979 -76.5825 -76.5664
   -76.4662 -76.4493 -76.4365 -76.4196 -48.0621 -48.0466 -48.0343 -48.0188
   -48.0025 -47.9759 -47.9324 -47.8915 -47.8396 -47.7983 -47.7541 -47.7269
   -45.5544 -45.5259 -45.4797 -45.4364 -45.4138 -45.3853 -45.3802 -45.3386
   -45.3364 -45.2944 -45.2893 -45.2822 -45.2690 -45.2602 -45.2563 -45.2432
   -45.2386 -45.1941 -45.1465 -45.1400 -45.1258 -45.1173 -45.1150 -45.1008
    -4.6506  -3.6606  -2.8828  -2.8432  -2.5777  -2.4500  -2.2497  -2.0589
    -1.9188  -1.8855  -1.7826  -1.5673  -1.3623  -1.2203  -1.1802  -1.1041
    -1.0939  -0.6846  -0.6371  -0.5987  -0.1981  -0.1533  -0.1227   0.1114
     0.2152   0.2241   0.3671   0.4400   0.6246   0.7137   0.7878   0.8763
     0.8972   0.9517   1.0176   1.0458   1.0937   1.1193   1.1270   1.1490
     1.2382   1.2925   1.5864   1.6315   1.9654   1.9958   2.0058   2.0923
     2.1118   2.4440   2.4507   2.4937

          k = 0.0648-0.1122 0.0000 ( 14088 PWs)   bands (ev):

   -79.2230 -79.2198 -79.2180 -79.1885 -76.6034 -76.5996 -76.5934 -76.5640
   -76.4537 -76.4509 -76.4496 -76.4174 -48.0509 -48.0481 -48.0463 -48.0166
   -47.9558 -47.9545 -47.9111 -47.9100 -47.9082 -47.7618 -47.7611 -47.7598
   -45.5047 -45.5035 -45.4583 -45.4547 -45.4528 -45.3632 -45.3627 -45.3150
   -45.3143 -45.3135 -45.2992 -45.2961 -45.2941 -45.2736 -45.2702 -45.2649
   -45.2413 -45.1548 -45.1541 -45.1524 -45.1296 -45.1271 -45.1260 -45.0989
    -3.7516  -3.7514  -3.7510  -2.5367  -2.5364  -2.5360  -1.9347  -1.8041
    -1.6016  -1.6009  -1.6002  -1.5027  -1.5023  -1.5013  -1.4924  -1.4334
    -1.4258  -0.4527  -0.4523  -0.4514  -0.3469  -0.3463  -0.3458   0.1336
     0.1345   0.1358   0.5218   0.6055   0.6068   0.6084   0.9075   0.9086
     0.9095   0.9194   0.9908   0.9998   1.0009   1.0021   1.0980   1.1875
     1.1889   1.1902   1.2603   1.8047   1.8062   1.8069   1.8730   1.8989
     2.2734   2.2755   2.2761   2.4333

          k = 0.0648-0.0748 0.0000 ( 14076 PWs)   bands (ev):

   -79.2342 -79.2179 -79.2068 -79.1905 -76.6144 -76.5953 -76.5851 -76.5657
   -76.4662 -76.4491 -76.4367 -76.4196 -48.0623 -48.0460 -48.0349 -48.0187
   -48.0025 -47.9757 -47.9324 -47.8915 -47.8398 -47.7983 -47.7542 -47.7268
   -45.5548 -45.5253 -45.4798 -45.4362 -45.4138 -45.3852 -45.3806 -45.3386
   -45.3364 -45.2944 -45.2898 -45.2828 -45.2667 -45.2596 -45.2586 -45.2426
   -45.2386 -45.1941 -45.1465 -45.1400 -45.1256 -45.1172 -45.1152 -45.1008
    -4.6506  -3.6606  -2.8828  -2.8432  -2.5777  -2.4500  -2.2496  -2.0588
    -1.9188  -1.8855  -1.7826  -1.5674  -1.3623  -1.2203  -1.1802  -1.1041
    -1.0940  -0.6846  -0.6371  -0.5987  -0.1981  -0.1533  -0.1227   0.1114
     0.2152   0.2241   0.3671   0.4400   0.6246   0.7136   0.7877   0.8763
     0.8971   0.9516   1.0176   1.0458   1.0938   1.1193   1.1269   1.1490
     1.2382   1.2925   1.5864   1.6315   1.9654   1.9959   2.0057   2.0922
     2.1119   2.4441   2.4505   2.4937

          k =-0.0971 0.0561 0.0000 ( 14098 PWs)   bands (ev):

   -79.2304 -79.2259 -79.1987 -79.1944 -76.6118 -76.6023 -76.5781 -76.5682
   -76.4613 -76.4585 -76.4272 -76.4246 -48.0583 -48.0542 -48.0267 -48.0227
   -48.0008 -47.9969 -47.8826 -47.8777 -47.8536 -47.8489 -47.7325 -47.7285
   -45.5551 -45.5457 -45.4288 -45.4189 -45.4116 -45.4086 -45.3980 -45.3878
   -45.2843 -45.2835 -45.2779 -45.2716 -45.2688 -45.2593 -45.2541 -45.2527
   -45.2489 -45.2441 -45.1359 -45.1335 -45.1226 -45.1196 -45.1073 -45.1049
    -4.3043  -4.3038  -2.7498  -2.7491  -2.3498  -2.3481  -2.0782  -2.0777
    -2.0108  -2.0100  -1.8068  -1.8045  -1.2296  -1.2283  -1.0664  -1.0627
    -0.9930  -0.9910  -0.7970  -0.7961   0.0523   0.0545   0.0887   0.0916
     0.2225   0.2247   0.4789   0.4827   0.6652   0.6666   0.7861   0.7881
     0.8437   0.8471   0.9587   0.9607   1.0265   1.0304   1.1261   1.1274
     1.1391   1.1407   1.8121   1.8159   1.9570   1.9608   2.2534   2.2538
     2.2559   2.2574   2.3384   2.3417

          k =-0.0971 0.0935 0.0000 ( 14076 PWs)   bands (ev):

   -79.2342 -79.2179 -79.2068 -79.1905 -76.6144 -76.5952 -76.5852 -76.5657
   -76.4662 -76.4492 -76.4367 -76.4196 -48.0623 -48.0461 -48.0349 -48.0187
   -48.0025 -47.9757 -47.9325 -47.8915 -47.8397 -47.7984 -47.7542 -47.7268
   -45.5548 -45.5253 -45.4798 -45.4362 -45.4138 -45.3852 -45.3806 -45.3386
   -45.3364 -45.2945 -45.2898 -45.2828 -45.2666 -45.2596 -45.2587 -45.2426
   -45.2385 -45.1941 -45.1465 -45.1400 -45.1257 -45.1172 -45.1151 -45.1008
    -4.6506  -3.6606  -2.8828  -2.8432  -2.5777  -2.4500  -2.2497  -2.0588
    -1.9188  -1.8855  -1.7826  -1.5673  -1.3623  -1.2203  -1.1802  -1.1041
    -1.0939  -0.6846  -0.6371  -0.5987  -0.1981  -0.1534  -0.1227   0.1114
     0.2152   0.2241   0.3671   0.4400   0.6246   0.7136   0.7877   0.8763
     0.8972   0.9517   1.0175   1.0459   1.0938   1.1193   1.1269   1.1490
     1.2382   1.2925   1.5864   1.6315   1.9654   1.9959   2.0056   2.0922
     2.1119   2.4441   2.4505   2.4937

          k =-0.0971 0.1309 0.0000 ( 14076 PWs)   bands (ev):

   -79.2341 -79.2183 -79.2064 -79.1906 -76.6140 -76.5970 -76.5833 -76.5661
   -76.4662 -76.4493 -76.4365 -76.4196 -48.0622 -48.0464 -48.0345 -48.0188
   -48.0025 -47.9759 -47.9324 -47.8914 -47.8398 -47.7983 -47.7541 -47.7269
   -45.5544 -45.5259 -45.4798 -45.4357 -45.4138 -45.3853 -45.3810 -45.3386
   -45.3362 -45.2944 -45.2893 -45.2824 -45.2682 -45.2601 -45.2571 -45.2430
   -45.2386 -45.1940 -45.1465 -45.1400 -45.1258 -45.1172 -45.1150 -45.1009
    -4.6506  -3.6606  -2.8828  -2.8432  -2.5777  -2.4500  -2.2497  -2.0589
    -1.9188  -1.8855  -1.7826  -1.5674  -1.3623  -1.2203  -1.1801  -1.1041
    -1.0939  -0.6846  -0.6371  -0.5987  -0.1981  -0.1533  -0.1227   0.1114
     0.2151   0.2241   0.3671   0.4400   0.6245   0.7137   0.7878   0.8763
     0.8972   0.9516   1.0175   1.0459   1.0937   1.1193   1.1269   1.1490
     1.2382   1.2925   1.5864   1.6315   1.9654   1.9959   2.0056   2.0923
     2.1118   2.4441   2.4506   2.4937

          k =-0.0971-0.0561 0.0000 ( 14098 PWs)   bands (ev):

   -79.2291 -79.2275 -79.1970 -79.1959 -76.6090 -76.6063 -76.5745 -76.5707
   -76.4605 -76.4594 -76.4262 -76.4255 -48.0570 -48.0557 -48.0250 -48.0241
   -47.9995 -47.9983 -47.8812 -47.8792 -47.8518 -47.8503 -47.7311 -47.7300
   -45.5522 -45.5489 -45.4258 -45.4231 -45.4107 -45.4096 -45.3940 -45.3904
   -45.2841 -45.2829 -45.2769 -45.2747 -45.2658 -45.2623 -45.2525 -45.2515
   -45.2486 -45.2459 -45.1353 -45.1342 -45.1217 -45.1205 -45.1064 -45.1057
    -4.3041  -4.3039  -2.7496  -2.7492  -2.3491  -2.3489  -2.0780  -2.0779
    -2.0105  -2.0103  -1.8060  -1.8053  -1.2290  -1.2289  -1.0651  -1.0639
    -0.9922  -0.9918  -0.7968  -0.7963   0.0534   0.0534   0.0897   0.0907
     0.2229   0.2243   0.4801   0.4814   0.6651   0.6667   0.7867   0.7875
     0.8445   0.8463   0.9588   0.9605   1.0274   1.0295   1.1267   1.1267
     1.1398   1.1400   1.8134   1.8147   1.9580   1.9598   2.2536   2.2538
     2.2564   2.2569   2.3394   2.3407

     the Fermi energy is     1.1857 ev

!    total energy              =   -2545.19596046 Ry
     Harris-Foulkes estimate   =   -2545.19596341 Ry
     estimated scf accuracy    <       0.00000709 Ry

     The total energy is the sum of the following terms:

     one-electron contribution =  -22628.19010767 Ry
     hartree contribution      =   11310.36051311 Ry
     xc contribution           =    -330.55010618 Ry
     ewald contribution        =    9103.29913294 Ry
     electric field correction =       0.00000002 Ry
     smearing contrib. (-TS)   =      -0.11539268 Ry

     total magnetization       =    11.18 Bohr mag/cell
     absolute magnetization    =    27.35 Bohr mag/cell

     convergence has been achieved in 100 iterations
 
 BEEF-vdW xc energy contributions
           1 :   -288.381592431358     
           2 :    260.659405700996     
           3 :   -214.256418665658     
           4 :    162.811057076851     
           5 :   -118.504001957150     
           6 :    87.6660002829073     
           7 :   -69.8852007207776     
           8 :    60.2789155563835     
           9 :   -53.1198122089022     
          10 :    44.7632480596905     
          11 :   -34.6515618954534     
          12 :    24.4105070671997     
          13 :   -16.0571431909545     
          14 :    10.5713630663456     
          15 :   -7.54963201354309     
          16 :    5.80321010328362     
          17 :   -4.23576897406059     
          18 :    2.37861935425542     
          19 :  -0.384901471155047     
          20 :   -1.32716700678020     
          21 :    2.44526715337634     
          22 :   -2.92706831310699     
          23 :    2.94432818654872     
          24 :   -2.74453298456444     
          25 :    2.55521963847133     
          26 :   -2.54991717239261     
          27 :    2.81651645585782     
          28 :   -3.30993986106682     
          29 :    3.84065202570565     
          30 :   -4.15711044645599     
          31 :   -26.4076040558114     
          32 :   -18.7720536941637     

     Forces acting on atoms (Ry/au):


     negative rho (up, down):  2.119E-03 1.834E-03
     atom    1 type  1   force =     0.00003653   -0.00003329    0.01039658
     atom    2 type  1   force =    -0.00003499    0.00005193    0.01057672
     atom    3 type  1   force =     0.00007528   -0.00003024    0.01034364
     atom    4 type  1   force =    -0.00007338    0.00001186    0.01031696
     atom    5 type  1   force =    -0.00010714   -0.00002810   -0.01085787
     atom    6 type  1   force =     0.00010878   -0.00001540   -0.01103923
     atom    7 type  1   force =     0.00001636    0.00008595   -0.01095754
     atom    8 type  1   force =    -0.00001473   -0.00004270   -0.01084696
     atom    9 type  1   force =     0.00004196    0.00006663    0.00060659
     atom   10 type  1   force =    -0.00004580   -0.00013007    0.00048963
     atom   11 type  1   force =    -0.00018070    0.00000591    0.00060439
     atom   12 type  1   force =     0.00017782    0.00005752    0.00036709

     Total force =     0.030201     Total SCF correction =     0.011596
     SCF correction compared to forces is large: reduce conv_thr to get better values


     entering subroutine stress ...


     negative rho (up, down):  2.119E-03 1.834E-03
          total   stress  (Ry/bohr**3)                   (kbar)     P=  -14.86
  -0.00012291   0.00000002  -0.00000000        -18.08      0.00     -0.00
   0.00000002  -0.00012290   0.00000000          0.00    -18.08      0.00
  -0.00000000   0.00000000  -0.00005728         -0.00      0.00     -8.43

 !ASE

     Writing output data file calc.save
 
     init_run     :     29.95s CPU     48.29s WALL (       1 calls)
     electrons    :   5845.59s CPU   8860.39s WALL (       1 calls)
     forces       :      2.88s CPU      3.49s WALL (       1 calls)
     stress       :      6.03s CPU      6.97s WALL (       1 calls)

     Called by init_run:
     wfcinit      :     28.12s CPU     45.89s WALL (       1 calls)
     potinit      :      1.18s CPU      1.64s WALL (       1 calls)

     Called by electrons:
     c_bands      :   4978.34s CPU   7470.65s WALL (     100 calls)
     sum_band     :    718.67s CPU   1175.89s WALL (     100 calls)
     v_of_rho     :     94.29s CPU    140.00s WALL (     101 calls)
     newd         :     19.05s CPU     20.80s WALL (     101 calls)
     mix_rho      :      7.94s CPU     12.20s WALL (     100 calls)
     vdW_energy   :      2.97s CPU      2.98s WALL (     137 calls)
     vdW_ffts     :     67.95s CPU    103.96s WALL (     276 calls)
     vdW_v        :     11.99s CPU     17.42s WALL (     137 calls)

     Called by c_bands:
     init_us_2    :      3.67s CPU      4.05s WALL (    8120 calls)
     cegterg      :   4926.94s CPU   7408.01s WALL (    4000 calls)

     Called by *egterg:
     h_psi        :   3241.80s CPU   5499.38s WALL (   22615 calls)
     s_psi        :     47.43s CPU     47.66s WALL (   22615 calls)
     g_psi        :      2.71s CPU      2.74s WALL (   18575 calls)
     cdiaghg      :   1067.23s CPU   1110.59s WALL (   22575 calls)

     Called by h_psi:
     add_vuspsi   :     51.07s CPU     51.34s WALL (   22615 calls)

     General routines
     calbec       :    188.85s CPU    251.71s WALL (   26695 calls)
     fft          :    131.85s CPU    201.40s WALL (   10535 calls)
     ffts         :      1.50s CPU      2.31s WALL (     402 calls)
     fftw         :   3624.22s CPU   6260.27s WALL ( 2408004 calls)
     interpolate  :      6.48s CPU      9.94s WALL (     402 calls)
     davcio       :      0.00s CPU      0.02s WALL (      40 calls)
 
     Parallel routines
     fft_scatter  :   3606.70s CPU   6293.97s WALL ( 2418941 calls)
 
     PWSCF        :     1h38m CPU        2h28m WALL

 
   This run was terminated on:  22:11:29  19Dec2018            

=------------------------------------------------------------------------------=
   JOB DONE.
=------------------------------------------------------------------------------=
Job  /afs/slac/g/suncat/bin/suncat-tsmpirun -x LD_LIBRARY_PATH -wdir /scratch/qe758554_pwZpt pw.x -in pw.inp

TID   HOST_NAME   COMMAND_LINE            STATUS            TERMINATION_TIME
===== ========== ================  =======================  ===================
00000 suncat0217 pw.x -in pw.inp   Done                     12/19/2018 22:11:29
00001 suncat0217 pw.x -in pw.inp   Done                     12/19/2018 22:11:29
00002 suncat0217 pw.x -in pw.inp   Done                     12/19/2018 22:11:29
00003 suncat0217 pw.x -in pw.inp   Done                     12/19/2018 22:11:29
00004 suncat0217 pw.x -in pw.inp   Done                     12/19/2018 22:11:29
00005 suncat0217 pw.x -in pw.inp   Done                     12/19/2018 22:11:29
00006 suncat0217 pw.x -in pw.inp   Done                     12/19/2018 22:11:29
00007 suncat0217 pw.x -in pw.inp   Done                     12/19/2018 22:11:29
00008 suncat0216 pw.x -in pw.inp   Done                     12/19/2018 22:11:29
00009 suncat0216 pw.x -in pw.inp   Done                     12/19/2018 22:11:29
00010 suncat0216 pw.x -in pw.inp   Done                     12/19/2018 22:11:29
00011 suncat0216 pw.x -in pw.inp   Done                     12/19/2018 22:11:29
00012 suncat0216 pw.x -in pw.inp   Done                     12/19/2018 22:11:29
00013 suncat0216 pw.x -in pw.inp   Done                     12/19/2018 22:11:29
00014 suncat0216 pw.x -in pw.inp   Done                     12/19/2018 22:11:29
00015 suncat0216 pw.x -in pw.inp   Done                     12/19/2018 22:11:29
00016 suncat0215 pw.x -in pw.inp   Done                     12/19/2018 22:11:29
00017 suncat0215 pw.x -in pw.inp   Done                     12/19/2018 22:11:29
00018 suncat0215 pw.x -in pw.inp   Done                     12/19/2018 22:11:29
00019 suncat0215 pw.x -in pw.inp   Done                     12/19/2018 22:11:29
00020 suncat0215 pw.x -in pw.inp   Done                     12/19/2018 22:11:29
00021 suncat0215 pw.x -in pw.inp   Done                     12/19/2018 22:11:29
00022 suncat0215 pw.x -in pw.inp   Done                     12/19/2018 22:11:29
00023 suncat0215 pw.x -in pw.inp   Done                     12/19/2018 22:11:29
00024 suncat0210 pw.x -in pw.inp   Done                     12/19/2018 22:11:29
00025 suncat0210 pw.x -in pw.inp   Done                     12/19/2018 22:11:29
00026 suncat0210 pw.x -in pw.inp   Done                     12/19/2018 22:11:29
00027 suncat0210 pw.x -in pw.inp   Done                     12/19/2018 22:11:29
00028 suncat0210 pw.x -in pw.inp   Done                     12/19/2018 22:11:29
00029 suncat0210 pw.x -in pw.inp   Done                     12/19/2018 22:11:29
00030 suncat0210 pw.x -in pw.inp   Done                     12/19/2018 22:11:29
00031 suncat0210 pw.x -in pw.inp   Done                     12/19/2018 22:11:29
00032 suncat0201 pw.x -in pw.inp   Done                     12/19/2018 22:11:29
00033 suncat0201 pw.x -in pw.inp   Done                     12/19/2018 22:11:29
00034 suncat0201 pw.x -in pw.inp   Done                     12/19/2018 22:11:29
00035 suncat0201 pw.x -in pw.inp   Done                     12/19/2018 22:11:29
00036 suncat0201 pw.x -in pw.inp   Done                     12/19/2018 22:11:29
00037 suncat0201 pw.x -in pw.inp   Done                     12/19/2018 22:11:29
00038 suncat0201 pw.x -in pw.inp   Done                     12/19/2018 22:11:29
00039 suncat0201 pw.x -in pw.inp   Done                     12/19/2018 22:11:29
00040 suncat0200 pw.x -in pw.inp   Done                     12/19/2018 22:11:29
00041 suncat0200 pw.x -in pw.inp   Done                     12/19/2018 22:11:29
00042 suncat0200 pw.x -in pw.inp   Done                     12/19/2018 22:11:29
00043 suncat0200 pw.x -in pw.inp   Done                     12/19/2018 22:11:29
00044 suncat0200 pw.x -in pw.inp   Done                     12/19/2018 22:11:29
00045 suncat0200 pw.x -in pw.inp   Done                     12/19/2018 22:11:29
00046 suncat0200 pw.x -in pw.inp   Done                     12/19/2018 22:11:29
00047 suncat0200 pw.x -in pw.inp   Done                     12/19/2018 22:11:29
00048 suncat0099 pw.x -in pw.inp   Done                     12/19/2018 22:11:29
00049 suncat0099 pw.x -in pw.inp   Done                     12/19/2018 22:11:29
00050 suncat0099 pw.x -in pw.inp   Done                     12/19/2018 22:11:29
00051 suncat0099 pw.x -in pw.inp   Done                     12/19/2018 22:11:29
00052 suncat0099 pw.x -in pw.inp   Done                     12/19/2018 22:11:29
00053 suncat0099 pw.x -in pw.inp   Done                     12/19/2018 22:11:29
00054 suncat0099 pw.x -in pw.inp   Done                     12/19/2018 22:11:29
00055 suncat0099 pw.x -in pw.inp   Done                     12/19/2018 22:11:29
00056 suncat0098 pw.x -in pw.inp   Done                     12/19/2018 22:11:29
00057 suncat0098 pw.x -in pw.inp   Done                     12/19/2018 22:11:29
00058 suncat0098 pw.x -in pw.inp   Done                     12/19/2018 22:11:29
00059 suncat0098 pw.x -in pw.inp   Done                     12/19/2018 22:11:29
00060 suncat0098 pw.x -in pw.inp   Done                     12/19/2018 22:11:29
00061 suncat0098 pw.x -in pw.inp   Done                     12/19/2018 22:11:29
00062 suncat0098 pw.x -in pw.inp   Done                     12/19/2018 22:11:29
00063 suncat0098 pw.x -in pw.inp   Done                     12/19/2018 22:11:29
