 vasp.5.2.2 15Apr09 complex 
 executed on             LinuxIFC date 2010.06.08  14:33:01
 running on   24 nodes
 distr:  one band on    1 nodes,   24 groups


--------------------------------------------------------------------------------------------------------


 INCAR:
 POTCAR:   PAW_PBE Sr_sv 07Sep2000                
 POTCAR:   PAW_PBE Ti_sv 07Sep2000                
 POTCAR:   PAW_PBE O 08Apr2002                    
 POTCAR:   PAW_PBE Sr_sv 07Sep2000                
   VRHFIN =Sr: 4s4p5s                                                           
   LEXCH  = PE                                                                  
   EATOM  =   842.4562 eV,   61.9188 Ry                                         
                                                                                
   TITEL  = PAW_PBE Sr_sv 07Sep2000                                             
   LULTRA =        F    use ultrasoft PP ?                                      
   IUNSCR =        1    unscreen: 0-lin 1-nonlin 2-no                           
   RPACOR =    2.200    partial core radius                                     
   POMASS =   87.620; ZVAL   =   10.000    mass and valenz                      
   RCORE  =    2.500    outmost cutoff radius                                   
   RWIGS  =    4.040; RWIGS  =    2.138    wigner-seitz radius (au A)           
   ENMAX  =  229.282; ENMIN  =  171.961 eV                                      
   RCLOC  =    2.201    cutoff for local pot                                    
   LCOR   =        T    correct aug charges                                     
   LPAW   =        T    paw PP                                                  
   EAUG   =  366.804                                                            
   DEXC   =     .000                                                            
   RMAX   =    3.045    core radius for proj-oper                               
   RAUG   =    1.300    factor for augmentation sphere                          
   RDEP   =    2.562    radius for radial grids                                 
   QCUT   =   -4.105; QGAM   =    8.210    optimization parameters              
                                                                                
   Description                                                                  
     l     E      TYP  RCUT    TYP  RCUT                                        
     0   .000     23  2.480                                                     
     0   .000     23  2.480                                                     
     1   .000     23  2.500                                                     
     1   .000     23  2.500                                                     
     2   .000     23  2.500                                                     
     2   .000     23  2.500                                                     
  local pseudopotential read in
  partial core-charges read in
  atomic valenz-charges read in
  non local Contribution for L=           0  read in
    real space projection operators read in
  non local Contribution for L=           0  read in
    real space projection operators read in
  non local Contribution for L=           1  read in
    real space projection operators read in
  non local Contribution for L=           1  read in
    real space projection operators read in
  non local Contribution for L=           2  read in
    real space projection operators read in
  non local Contribution for L=           2  read in
    real space projection operators read in
    PAW grid and wavefunctions read in
 
   number of l-projection  operators is LMAX  =           6
   number of lm-projection operators is LMMAX =          18
 
 POTCAR:   PAW_PBE Ti_sv 07Sep2000                
   VRHFIN =Ti: 3p4s3d                                                           
   LEXCH  = PE                                                                  
   EATOM  =  1587.5048 eV,  116.6783 Ry                                         
                                                                                
   TITEL  = PAW_PBE Ti_sv 07Sep2000                                             
   LULTRA =        F    use ultrasoft PP ?                                      
   IUNSCR =        1    unscreen: 0-lin 1-nonlin 2-no                           
   RPACOR =    2.000    partial core radius                                     
   POMASS =   47.880; ZVAL   =   12.000    mass and valenz                      
   RCORE  =    2.300    outmost cutoff radius                                   
   RWIGS  =    2.300; RWIGS  =    1.217    wigner-seitz radius (au A)           
   ENMAX  =  274.574; ENMIN  =  205.930 eV                                      
   RCLOC  =    1.701    cutoff for local pot                                    
   LCOR   =        T    correct aug charges                                     
   LPAW   =        T    paw PP                                                  
   EAUG   =  482.848                                                            
   DEXC   =     .000                                                            
   RMAX   =    2.783    core radius for proj-oper                               
   RAUG   =    1.300    factor for augmentation sphere                          
   RDEP   =    2.381    radius for radial grids                                 
   QCUT   =   -4.492; QGAM   =    8.985    optimization parameters              
                                                                                
   Description                                                                  
     l     E      TYP  RCUT    TYP  RCUT                                        
     0   .000     23  1.800                                                     
     0   .000     23  2.300                                                     
     0   .000     23  1.800                                                     
     0   .000     23  2.300                                                     
     1   .000     23  2.300                                                     
     1  -.100     23  2.300                                                     
     2   .000     23  2.300                                                     
     2   .000     23  2.300                                                     
     3   .000      7   .000                                                     
  local pseudopotential read in
  partial core-charges read in
  atomic valenz-charges read in
  non local Contribution for L=           0  read in
    real space projection operators read in
  non local Contribution for L=           0  read in
    real space projection operators read in
  non local Contribution for L=           1  read in
    real space projection operators read in
  non local Contribution for L=           1  read in
    real space projection operators read in
  non local Contribution for L=           2  read in
    real space projection operators read in
  non local Contribution for L=           2  read in
    real space projection operators read in
    PAW grid and wavefunctions read in
 
   number of l-projection  operators is LMAX  =           6
   number of lm-projection operators is LMMAX =          18
 
 POTCAR:   PAW_PBE O 08Apr2002                    
   VRHFIN =O: s2p4                                                              
   LEXCH  = PE                                                                  
   EATOM  =   432.3788 eV,   31.7789 Ry                                         
                                                                                
   TITEL  = PAW_PBE O 08Apr2002                                                 
   LULTRA =        F    use ultrasoft PP ?                                      
   IUNSCR =        0    unscreen: 0-lin 1-nonlin 2-no                           
   RPACOR =     .000    partial core radius                                     
   POMASS =   16.000; ZVAL   =    6.000    mass and valenz                      
   RCORE  =    1.520    outmost cutoff radius                                   
   RWIGS  =    1.550; RWIGS  =     .820    wigner-seitz radius (au A)           
   ENMAX  =  400.000; ENMIN  =  300.000 eV                                      
   ICORE  =        2    local potential                                         
   LCOR   =        T    correct aug charges                                     
   LPAW   =        T    paw PP                                                  
   EAUG   =  605.392                                                            
   DEXC   =     .000                                                            
   RMAX   =    2.264    core radius for proj-oper                               
   RAUG   =    1.300    factor for augmentation sphere                          
   RDEP   =    1.550    radius for radial grids                                 
   QCUT   =   -5.520; QGAM   =   11.041    optimization parameters              
                                                                                
   Description                                                                  
     l     E      TYP  RCUT    TYP  RCUT                                        
     0   .000     23  1.200                                                     
     0  -.700     23  1.200                                                     
     1   .000     23  1.520                                                     
     1   .600     23  1.520                                                     
     2   .000      7  1.500                                                     
  local pseudopotential read in
  atomic valenz-charges read in
  non local Contribution for L=           0  read in
    real space projection operators read in
  non local Contribution for L=           0  read in
    real space projection operators read in
  non local Contribution for L=           1  read in
    real space projection operators read in
  non local Contribution for L=           1  read in
    real space projection operators read in
    PAW grid and wavefunctions read in
 
   number of l-projection  operators is LMAX  =           4
   number of lm-projection operators is LMMAX =           8
 
 Optimization of the real space projectors (new method)

 maximal supplied QI-value         = 15.12
 optimisation between [QCUT,QGAM] = [ 12.55, 31.29] = [ 44.09,274.23] Ry 
 Optimized for a Real-space Cutoff    1.40 Angstroem

   l    n(q)    QCUT    max X(q) W(low)/X(q) W(high)/X(q)  e(spline) 
   0     13    12.548     6.584    0.14E-04    0.13E-05    0.24E-06
   0     13    12.548    11.383    0.35E-04    0.53E-05    0.96E-06
   1     13    12.548     3.802    0.38E-05    0.34E-06    0.71E-06
   1     13    12.548    39.081    0.12E-03    0.35E-04    0.28E-04
   2     12    12.548     4.950    0.54E-05    0.18E-04    0.81E-06
   2     12    12.548    88.754    0.68E-04    0.22E-03    0.95E-05
 Optimization of the real space projectors (new method)

 maximal supplied QI-value         = 16.25
 optimisation between [QCUT,QGAM] = [ 12.51, 31.37] = [ 43.85,275.49] Ry 
 Optimized for a Real-space Cutoff    1.29 Angstroem

   l    n(q)    QCUT    max X(q) W(low)/X(q) W(high)/X(q)  e(spline) 
   0     12    12.514     4.146    0.81E-05    0.21E-07    0.56E-07
   0     12    12.514    13.578    0.28E-04    0.17E-06    0.68E-06
   1     12    12.514     4.841    0.16E-05    0.30E-05    0.17E-06
   1     12    12.514     4.867    0.21E-03    0.94E-04    0.23E-05
   2     11    12.514     3.894    0.84E-05    0.27E-05    0.32E-06
   2     11    12.514    45.626    0.18E-03    0.20E-03    0.82E-05
 Optimization of the real space projectors (new method)

 maximal supplied QI-value         = 24.76
 optimisation between [QCUT,QGAM] = [ 12.38, 31.19] = [ 42.90,272.45] Ry 
 Optimized for a Real-space Cutoff    0.88 Angstroem

   l    n(q)    QCUT    max X(q) W(low)/X(q) W(high)/X(q)  e(spline) 
   0      8    12.378     4.192    0.13E-04    0.24E-04    0.27E-07
   0      8    12.378     8.473    0.25E-03    0.16E-03    0.15E-06
   1      8    12.378     2.474    0.34E-04    0.31E-04    0.31E-07
   1      8    12.378     3.912    0.21E-03    0.84E-04    0.13E-06
 PAW_PBE Sr_sv 07Sep2000                :
 energy of atom  1       EATOM= -842.4562
 kinetic energy error for atom=    0.0007 (will be added to EATOM!!)
 PAW_PBE Ti_sv 07Sep2000                :
 energy of atom  2       EATOM=-1587.5048
 kinetic energy error for atom=    0.0027 (will be added to EATOM!!)
 PAW_PBE O 08Apr2002                    :
 energy of atom  3       EATOM= -432.3788
 kinetic energy error for atom=    0.0168 (will be added to EATOM!!)
 
 
 POSCAR: Sr Ti  O                                
  positions in direct lattice
  No initial velocities read in
 exchange correlation table for  LEXCH =        8
   RHO(1)=    0.500       N(1)  =     2000
   RHO(2)=  100.500       N(2)  =     4000
 


--------------------------------------------------------------------------------------------------------


 ion  position               nearest neighbor table
   1  0.000  0.000  0.000-   5 2.79   7 2.79   9 2.79   5 2.79   8 2.79  10 2.79   6 2.79   7 2.79
                            10 2.79   6 2.79   8 2.79   9 2.79   3 3.42   4 3.42   4 3.42   3 3.42
   2  0.500  0.500  0.500-   6 2.79   8 2.79  10 2.79   6 2.79   7 2.79   9 2.79   5 2.79   8 2.79
                             9 2.79   5 2.79   7 2.79  10 2.79   4 3.42   3 3.42   3 3.42   4 3.42
   3  0.250  0.250  0.250-   5 1.97   6 1.97   7 1.97   8 1.97   9 1.97  10 1.97   1 3.42   1 3.42
                             1 3.42   2 3.42   1 3.42   2 3.42   2 3.42   2 3.42
   4  0.750  0.750  0.750-   5 1.97   6 1.97   7 1.97   8 1.97   9 1.97  10 1.97   2 3.42   2 3.42
                             1 3.42   2 3.42   2 3.42   1 3.42   1 3.42   1 3.42
   5  0.000  0.000  0.500-   3 1.97   4 1.97   1 2.79   1 2.79   2 2.79   2 2.79
   6  0.500  0.500  0.000-   3 1.97   4 1.97   2 2.79   2 2.79   1 2.79   1 2.79
   7  0.000  0.500  0.000-   3 1.97   4 1.97   1 2.79   2 2.79   1 2.79   2 2.79
   8  0.500  0.000  0.500-   3 1.97   4 1.97   2 2.79   1 2.79   2 2.79   1 2.79
   9  0.500  0.000  0.000-   3 1.97   4 1.97   1 2.79   2 2.79   2 2.79   1 2.79
  10  0.000  0.500  0.500-   3 1.97   4 1.97   2 2.79   1 2.79   1 2.79   2 2.79
 
  LATTYP: Found a face centered cubic cell.
 ALAT       =     7.8883933660
  
  Lattice vectors:
  
 A1 = (   0.0000000000,   3.9441966830,   3.9441966830)
 A2 = (   3.9441966830,   0.0000000000,   3.9441966830)
 A3 = (   3.9441966830,   3.9441966830,   0.0000000000)
 Subroutine PRICEL returns following result:
 
  LATTYP: Found a simple cubic cell.
 ALAT       =     3.9441966830
  
  Lattice vectors:
  
 A1 = (  -3.9441966830,   0.0000000000,   0.0000000000)
 A2 = (   0.0000000000,   0.0000000000,  -3.9441966830)
 A3 = (   0.0000000000,  -3.9441966830,   0.0000000000)
 
   2 primitive cells build up your supercell.
 

Analysis of symmetry for initial positions (statically):

 Routine SETGRP: Setting up the symmetry group for a 
 face centered cubic supercell.


 Subroutine GETGRP returns: Found 48 space group operations
 (whereof 48 operations were pure point group operations)
 out of a pool of 48 trial point group operations.


The static configuration has the point symmetry O_h .

Analysis of symmetry for dynamics (positions and initial velocities):

 Subroutine DYNSYM returns: Found 48 space group operations
 (whereof 48 operations were pure point group operations)
 out of a pool of 48 trial space group operations
 (whereof 48 operations were pure point group operations)
 and found also     2 'primitive' translations


The dynamic configuration has the point symmetry O_h .
 
 
 KPOINTS: Automatic                               

Automatic generation of k-mesh.
 
 Subroutine IBZKPT returns following result:
 ===========================================
 
 Found      8 irreducible k-points:
 
 Following reciprocal coordinates:
            Coordinates               Weight
  0.000000  0.000000  0.000000      1.000000
  0.250000  0.000000  0.000000      8.000000
  0.500000  0.000000  0.000000      4.000000
  0.250000  0.250000  0.000000      6.000000
  0.500000  0.250000  0.000000     24.000000
 -0.250000  0.250000  0.000000     12.000000
  0.500000  0.500000  0.000000      3.000000
 -0.250000  0.500000  0.250000      6.000000
 
 Following cartesian coordinates:
            Coordinates               Weight
  0.000000  0.000000  0.000000      1.000000
 -0.031692  0.031692  0.031692      8.000000
 -0.063384  0.063384  0.063384      4.000000
  0.000000  0.000000  0.063384      6.000000
 -0.031692  0.031692  0.095076     24.000000
  0.063384 -0.063384  0.000000     12.000000
  0.000000  0.000000  0.126769      3.000000
  0.126769 -0.063384  0.000000      6.000000
 
 
 Subroutine IBZKPT_HF returns following result:
 ==============================================
 
 Found     64 k-points in 1st BZ
 the following     64 k-points will be used (e.g. in the exchange kernel)
 Following reciprocal coordinates:   # in IRBZ
  0.000000  0.000000  0.000000       1
  0.250000  0.000000  0.000000       2
  0.500000  0.000000  0.000000       3
  0.250000  0.250000  0.000000       4
  0.500000  0.250000  0.000000       5
 -0.250000  0.250000  0.000000       6
  0.500000  0.500000  0.000000       7
 -0.250000  0.500000  0.250000       8
 -0.250000  0.000000  0.000000       2
  0.000000  0.250000  0.000000       2
  0.000000 -0.250000  0.000000       2
  0.000000  0.000000  0.250000       2
  0.000000  0.000000 -0.250000       2
  0.250000  0.250000  0.250000       2
 -0.250000 -0.250000 -0.250000       2
  0.000000  0.500000  0.000000       3
  0.000000  0.000000  0.500000       3
  0.500000  0.500000  0.500000       3
 -0.250000 -0.250000  0.000000       4
  0.000000  0.250000  0.250000       4
  0.000000 -0.250000 -0.250000       4
  0.250000  0.000000  0.250000       4
 -0.250000  0.000000 -0.250000       4
 -0.500000 -0.250000  0.000000       5
  0.000000  0.500000  0.250000       5
  0.000000 -0.500000 -0.250000       5
  0.250000  0.000000  0.500000       5
 -0.250000  0.000000 -0.500000       5
  0.250000  0.250000 -0.250000       5
 -0.250000 -0.250000  0.250000       5
  0.500000  0.250000  0.500000       5
 -0.500000 -0.250000 -0.500000       5
  0.250000  0.500000  0.000000       5
 -0.250000 -0.500000  0.000000       5
  0.250000 -0.250000 -0.250000       5
 -0.250000  0.250000  0.250000       5
  0.500000  0.500000  0.250000       5
 -0.500000 -0.500000 -0.250000       5
  0.000000  0.250000  0.500000       5
  0.000000 -0.250000 -0.500000       5
 -0.250000  0.250000 -0.250000       5
  0.250000 -0.250000  0.250000       5
  0.250000  0.500000  0.500000       5
 -0.250000 -0.500000 -0.500000       5
  0.500000  0.000000  0.250000       5
 -0.500000  0.000000 -0.250000       5
  0.250000 -0.250000  0.000000       6
  0.000000 -0.250000  0.250000       6
  0.000000  0.250000 -0.250000       6
  0.250000  0.000000 -0.250000       6
 -0.250000  0.000000  0.250000       6
  0.250000  0.250000  0.500000       6
 -0.250000 -0.250000 -0.500000       6
 -0.250000 -0.500000 -0.250000       6
  0.250000  0.500000  0.250000       6
 -0.500000 -0.250000 -0.250000       6
  0.500000  0.250000  0.250000       6
  0.000000  0.500000  0.500000       7
  0.500000  0.000000  0.500000       7
  0.250000 -0.500000 -0.250000       8
  0.250000 -0.250000  0.500000       8
 -0.250000  0.250000 -0.500000       8
  0.500000  0.250000 -0.250000       8
 -0.500000 -0.250000  0.250000       8


--------------------------------------------------------------------------------------------------------




 Dimension of arrays:
   k-points           NKPTS =      8   k-points in BZ     NKDIM =      8   number of bands    NBANDS=     72
   number of dos      NEDOS =    301   number of ions     NIONS =     10
   non local maximal  LDIM  =      6   non local SUM 2l+1 LMDIM =     18
   total plane-waves  NPLWV = 110592
   max r-space proj   IRMAX =  10517   max aug-charges    IRDMAX= 103396
   dimension x,y,z NGX =    48 NGY =   48 NGZ =   48
   dimension x,y,z NGXF=    60 NGYF=   60 NGZF=   60
   support grid    NGXF=   120 NGYF=  120 NGZF=  120
   ions per type =               2   2   6
 NGX,Y,Z   is equivalent  to a cutoff of  14.31, 14.31, 14.31 a.u.
 NGXF,Y,Z  is equivalent  to a cutoff of  17.88, 17.88, 17.88 a.u.


 I would recommend the setting:
   dimension x,y,z NGX =    45 NGY =   45 NGZ =   45
 SYSTEM =  SrTiO3_221_PBE_i6                       
 POSCAR =  Sr Ti  O                                

 Startparameter for this run:
   NWRITE =      2    write-flag & timer
   PREC   = high      medium, high low
   ISTART =      0    job   : 0-new  1-cont  2-samecut
   ICHARG =      0    charge: 1-file 2-atom 10-const
   ISPIN  =      1    spin polarized calculation?
   LNONCOLLINEAR =      F non collinear calculations
   LSORBIT =      F    spin-orbit coupling
   INIWAV =      1    electr: 0-lowe 1-rand  2-diag
   LASPH  =      F    aspherical Exc in radial PAW
   METAGGA=      F    non-selfconsistent MetaGGA calc.

 Electronic Relaxation 1
   ENCUT  =  600.0 eV  44.10 Ry    6.64 a.u.  11.14 11.14 11.14*2*pi/ulx,y,z
   ENINI  =  600.0     initial cutoff
   ENAUG  =  605.4 eV  augmentation charge cutoff
   NELM   =    300;   NELMIN=  2; NELMDL= -5     # of ELM steps 
   EDIFF  = 0.1E-09   stopping-criterion for ELM
   LREAL  =      T    real-space projection
   LCOMPAT=      F    compatible to vasp.4.4
   LREAL_COMPAT= F    compatible to vasp.4.5.1-3
   GGA_COMPAT  = T    GGA compatible to vasp.4.4-vasp.4.6
   LMAXPAW     = -100 max onsite density
   LMAXMIX     =    4 max onsite mixed and CHGCAR
   VOSKOWN=      0    Vosko Wilk Nusair interpolation
   ROPT   =   -0.00040  -0.00040  -0.00040
 Ionic relaxation
   EDIFFG = 0.1E-05   stopping-criterion for IOM
   NSW    =    150    number of steps for IOM
   NBLOCK =      1;   KBLOCK =     50    inner block; outer block 
   IBRION =      6    ionic relax: 0-MD 1-quasi-New 2-CG
   NFREE  =      2    steps in history (QN), initial steepest desc. (CG)
   ISIF   =      3    stress and relaxation
   IWAVPR =     11    prediction:  0-non 1-charg 2-wave 3-comb
   ISYM   =      2    0-nonsym 1-usesym 2-fastsym
   LCORR  =      T    Harris-Foulkes like correction to forces

   POTIM  = 0.0030    time-step for ionic-motion
   TEIN   =    0.0    initial temperature
   TEBEG  =    0.0;   TEEND  =   0.0 temperature during run
   SMASS  =  -3.00    Nose mass-parameter (am)
   estimated Nose-frequenzy (Omega)   =  0.10E-29 period in steps =****** mass=  -0.711E-27a.u.
   NPACO  =    256;   APACO  = 16.0  distance and # of slots for P.C.
   PSTRESS=    0.0 pullay stress

  Mass of Ions in am
   POMASS =  87.62 47.88 16.00
  Ionic Valenz
   ZVAL   =  10.00 12.00  6.00
  Atomic Wigner-Seitz radii
   RWIGS  =  -1.00 -1.00 -1.00
   NELECT =      80.0000    total number of electrons
   NUPDOWN=      -1.0000    fix difference up-down

 DOS related values:
   EMIN   =  10.00;   EMAX   =-10.00  energy-range for DOS
   EFERMI =   0.00
   ISMEAR =     0;   SIGMA  =   0.10  broadening in eV -4-tet -1-fermi 0-gaus

 Electronic relaxation 2 (details)
   IALGO  =     38    algorithm
   LDIAG  =      T    sub-space diagonalisation
   IMIX   =      4    mixing-type and parameters
     AMIX     =   0.40;   BMIX     =  1.00
     AMIX_MAG =   1.60;   BMIX_MAG =  1.00
     AMIN     =   0.10
     WC   =   100.;   INIMIX=   1;  MIXPRE=   1

 Intra band minimization:
   WEIMIN = 0.0010     energy-eigenvalue tresh-hold
   EBREAK =  0.39E-12  absolut break condition
   DEPER  =   0.30     relativ break condition  

   TIME   =   0.40     timestep for ELM

  volume/ion in A,a.u.               =      12.27        82.81
  Fermi-wavevector in a.u.,A,eV,Ry     =   1.419503  2.682471 27.415580  2.014988
  Thomas-Fermi vector in A             =   2.540517
 
 Write flags
   LWAVE  =      T    write WAVECAR
   LCHARG =      T    write CHGCAR
   LVTOT  =      F    write LOCPOT, local potential
   LELF   =      F    write electronic localiz. function (ELF)
   LORBIT =     10    0 simple, 1 ext, 2 COOP (PROOUT)


 Dipole corrections
   LMONO  =      F    monopole corrections only (constant potential shift)
   LDIPOL =      F    correct potential (dipole corrections)
   IDIPOL =      0    1-x, 2-y, 3-z, 4-all directions 
   EPSILON=  1.0000000 bulk dielectric constant

 Exchange correlation treatment:
   GGA     =    --    GGA type
   LEXCH   =     8    internal setting for exchange type
   VOSKOWN=      0    Vosko Wilk Nusair interpolation
   LHFCALC =     F    Hartree Fock is set to
   LHFONE  =     F    Hartree Fock one center treatment
   AEXX    =    0.0000 exact exchange contribution

 Linear response parameters
   LEPSILON=     F    determine dielectric tensor
   LRPA    =     F    only Hartree local field effects (RPA)
   LNABLA  =     F    use nabla operator in PAW spheres
   LVEL    =     F    velocity operator in full k-point grid
   LINTERFAST=   F  fast interpolation
   KINTER  =     0    interpolate to denser k-point grid
   CSHIFT  =0.1000    complex shift for real part using Kramers Kronig
   OMEGAMAX=  -1.0    maximum frequency

 Orbital magnetization related:
   ORBITALMAG=     F  switch on orbital magnetization
   LCHIMAG   =     F  perturbation theory with respect to B field



--------------------------------------------------------------------------------------------------------


 finite differences with symmetry
 charge density and potential will be updated during run
 non-spin polarized calculation
 Variant of blocked Davidson
 Davidson routine will perform the subspace rotation
 perform sub-space diagonalisation
    after iterative eigenvector-optimisation
 modified Broyden-mixing scheme, WC =      100.0
 initial mixing is a Kerker type mixing with AMIX =  0.4000 and BMIX =      1.0000
 Hartree-type preconditioning will be used
 using additional bands           32
 real space projection scheme for non local part
 use partial core corrections
 calculate Harris-corrections to forces 
   (improved forces if not selfconsistent)
 use gradient corrections 
 use of overlap-Matrix (Vanderbilt PP)
 Gauss-broadening in eV      SIGMA  =   0.10


--------------------------------------------------------------------------------------------------------


  energy-cutoff  :      600.00
  volume of cell :      122.72
      direct lattice vectors                 reciprocal lattice vectors
     0.000000000  3.944196683  3.944196683    -0.126768526  0.126768526  0.126768526
     3.944196683  0.000000000  3.944196683     0.126768526 -0.126768526  0.126768526
     3.944196683  3.944196683  0.000000000     0.126768526  0.126768526 -0.126768526

  length of vectors
     5.577936442  5.577936442  5.577936442     0.219569528  0.219569528  0.219569528


 
 k-points in units of 2pi/SCALE and weight: Automatic                               
   0.00000000  0.00000000  0.00000000       0.016
  -0.03169213  0.03169213  0.03169213       0.125
  -0.06338426  0.06338426  0.06338426       0.062
   0.00000000  0.00000000  0.06338426       0.094
  -0.03169213  0.03169213  0.09507639       0.375
   0.06338426 -0.06338426  0.00000000       0.188
   0.00000000  0.00000000  0.12676853       0.047
   0.12676853 -0.06338426  0.00000000       0.094
 
 k-points in reciprocal lattice and weights: Automatic                               
   0.00000000  0.00000000  0.00000000       0.016
   0.25000000  0.00000000  0.00000000       0.125
   0.50000000  0.00000000  0.00000000       0.062
   0.25000000  0.25000000  0.00000000       0.094
   0.50000000  0.25000000  0.00000000       0.375
  -0.25000000  0.25000000  0.00000000       0.188
   0.50000000  0.50000000  0.00000000       0.047
  -0.25000000  0.50000000  0.25000000       0.094
 
 position of ions in fractional coordinates (direct lattice) 
   0.00000000  0.00000000  0.00000000
   0.50000000  0.50000000  0.50000000
   0.25000000  0.25000000  0.25000000
   0.75000000  0.75000000  0.75000000
   0.00000000  0.00000000  0.50000000
   0.50000000  0.50000000  0.00000000
   0.00000000  0.50000000  0.00000000
   0.50000000  0.00000000  0.50000000
   0.50000000  0.00000000  0.00000000
   0.00000000  0.50000000  0.50000000
 
 position of ions in cartesian coordinates  (Angst):
   0.00000000  0.00000000  0.00000000
   3.94419668  3.94419668  3.94419668
   1.97209834  1.97209834  1.97209834
   5.91629502  5.91629502  5.91629502
   1.97209834  1.97209834  0.00000000
   1.97209834  1.97209834  3.94419668
   1.97209834  0.00000000  1.97209834
   1.97209834  3.94419668  1.97209834
   0.00000000  1.97209834  1.97209834
   3.94419668  1.97209834  1.97209834
 


--------------------------------------------------------------------------------------------------------


 k-point  1 :  0.00000.00000.0000  plane waves:    4111
 k-point  2 :  0.25000.00000.0000  plane waves:    4089
 k-point  3 :  0.50000.00000.0000  plane waves:    4092
 k-point  4 :  0.25000.25000.0000  plane waves:    4064
 k-point  5 :  0.50000.25000.0000  plane waves:    4097
 k-point  6 :  -.25000.25000.0000  plane waves:    4105
 k-point  7 :  0.50000.50000.0000  plane waves:    4088
 k-point  8 :  -.25000.50000.2500  plane waves:    4128

 maximum and minimum number of plane-waves per node :    4128   4064

 maximum number of plane-waves:    4128
 maximal index in each direction: 
   IXMAX= 11   IYMAX= 11   IZMAX= 11
   IXMIN=-11   IYMIN=-11   IZMIN=-11

 NGX is ok and might be reduce to  46
 NGY is ok and might be reduce to  46
 NGZ is ok and might be reduce to  46

 serial   3D FFT for wavefunctions
 parallel 3D FFT for charge:
    minimum data exchange during FFTs selected (reduces bandwidth)


 total amount of memory used by VASP on root node  51990. kBytes
========================================================================

   base      :    30000. kBytes
   nonlr-proj:     8525. kBytes
   fftplans  :     3648. kBytes
   grid      :     8031. kBytes
   one-center:      155. kBytes
   wavefun   :     1631. kBytes
 
 Broyden mixing: mesh for mixing (old mesh)
   NGX = 23   NGY = 23   NGZ = 23
  (NGX  = 60   NGY  = 60   NGZ  = 60)
  gives a total of  12167 points

 charge density for first step will be calculated from the start-wavefunctions


--------------------------------------------------------------------------------------------------------


 Maximum index for non-local projection operator        10149
 Maximum index for augmentation-charges         4401 (set IRDMAX)


--------------------------------------------------------------------------------------------------------


 initial charge from wavefunction
 First call to EWALD:  gamma=   0.357
 Maximum number of real-space cells 3x 3x 3
 Maximum number of reciprocal cells 3x 3x 3

    FEWALD:  cpu time    0.00: real time    0.00
   RESPFUN:  cpu time    0.00: real time    0.00


----------------------------------------- Iteration    1(   1)  ---------------------------------------


    POTLOK:  cpu time    2.24: real time    2.24
    SETDIJ:  cpu time    1.69: real time    1.69
     EDDAV:  cpu time   84.95: real time   84.95
       DOS:  cpu time    0.05: real time    0.05
    --------------------------------------------
      LOOP:  cpu time   88.93: real time   88.93

 eigenvalue-minimisations  :  1152
 total energy-change (2. order) :-0.1536549E+04  (-0.7433369E+04)
 number of electron   80.0000000 magnetization 
 augmentation part     1.6547182 magnetization 

 Free energy of the ion-electron system (eV)
  ---------------------------------------------------
  alpha Z        PSCENC =       502.70847669
  Ewald energy   TEWEN  =     -5725.19466925
  -1/2 Hartree   DENC   =       -96.28621696
  -exchange  EXHF       =         0.00000000
  -V(xc)+E(xc)   XCENC  =       271.39507225
  PAW double counting   =      1252.08969465    -1256.93138471
  entropy T*S    EENTRO =        -0.00047665
  eigenvalues    EBANDS =     -3938.41701973
  atomic energy  EATOM  =      7454.08711683
  ---------------------------------------------------
  free energy    TOTEN  =     -1536.54940688 eV

  energy without entropy =    -1536.54893023  energy(sigma->0) =    -1536.54916856


--------------------------------------------------------------------------------------------------------




----------------------------------------- Iteration    1(   2)  ---------------------------------------


     EDDAV:  cpu time   88.73: real time   88.73
       DOS:  cpu time    0.09: real time    0.09
    --------------------------------------------
      LOOP:  cpu time   88.82: real time   88.83

 eigenvalue-minimisations  :  1200
 total energy-change (2. order) :-0.1109392E+04  (-0.1082943E+04)
 number of electron   80.0000000 magnetization 
 augmentation part     1.6547182 magnetization 

 Free energy of the ion-electron system (eV)
  ---------------------------------------------------
  alpha Z        PSCENC =       502.70847669
  Ewald energy   TEWEN  =     -5725.19466925
  -1/2 Hartree   DENC   =       -96.28621696
  -exchange  EXHF       =         0.00000000
  -V(xc)+E(xc)   XCENC  =       271.39507225
  PAW double counting   =      1252.08969465    -1256.93138471
  entropy T*S    EENTRO =        -0.02557833
  eigenvalues    EBANDS =     -5047.78402179
  atomic energy  EATOM  =      7454.08711683
  ---------------------------------------------------
  free energy    TOTEN  =     -2645.94151062 eV

  energy without entropy =    -2645.91593229  energy(sigma->0) =    -2645.92872146


--------------------------------------------------------------------------------------------------------




----------------------------------------- Iteration    1(   3)  ---------------------------------------


     EDDAV:  cpu time  137.75: real time  137.74
       DOS:  cpu time    0.05: real time    0.05
    --------------------------------------------
      LOOP:  cpu time  137.81: real time  137.80

 eigenvalue-minimisations  :  2088
 total energy-change (2. order) :-0.1295556E+03  (-0.1173287E+03)
 number of electron   80.0000000 magnetization 
 augmentation part     1.6547182 magnetization 

 Free energy of the ion-electron system (eV)
  ---------------------------------------------------
  alpha Z        PSCENC =       502.70847669
  Ewald energy   TEWEN  =     -5725.19466925
  -1/2 Hartree   DENC   =       -96.28621696
  -exchange  EXHF       =         0.00000000
  -V(xc)+E(xc)   XCENC  =       271.39507225
  PAW double counting   =      1252.08969465    -1256.93138471
  entropy T*S    EENTRO =        -0.51538773
  eigenvalues    EBANDS =     -5176.84984396
  atomic energy  EATOM  =      7454.08711683
  ---------------------------------------------------
  free energy    TOTEN  =     -2775.49714219 eV

  energy without entropy =    -2774.98175447  energy(sigma->0) =    -2775.23944833


--------------------------------------------------------------------------------------------------------




----------------------------------------- Iteration    1(   4)  ---------------------------------------


     EDDAV:  cpu time   92.01: real time   92.01
       DOS:  cpu time    0.05: real time    0.05
    --------------------------------------------
      LOOP:  cpu time   92.07: real time   92.06

 eigenvalue-minimisations  :  1248
 total energy-change (2. order) :-0.3041573E+02  (-0.3022209E+02)
 number of electron   80.0000000 magnetization 
 augmentation part     1.6547182 magnetization 

 Free energy of the ion-electron system (eV)
  ---------------------------------------------------
  alpha Z        PSCENC =       502.70847669
  Ewald energy   TEWEN  =     -5725.19466925
  -1/2 Hartree   DENC   =       -96.28621696
  -exchange  EXHF       =         0.00000000
  -V(xc)+E(xc)   XCENC  =       271.39507225
  PAW double counting   =      1252.08969465    -1256.93138471
  entropy T*S    EENTRO =        -0.56135866
  eigenvalues    EBANDS =     -5207.21960421
  atomic energy  EATOM  =      7454.08711683
  ---------------------------------------------------
  free energy    TOTEN  =     -2805.91287337 eV

  energy without entropy =    -2805.35151471  energy(sigma->0) =    -2805.63219404


--------------------------------------------------------------------------------------------------------




----------------------------------------- Iteration    1(   5)  ---------------------------------------


     EDDAV:  cpu time  115.07: real time  115.06
       DOS:  cpu time    0.05: real time    0.05
    CHARGE:  cpu time    8.91: real time    8.91
    MIXING:  cpu time    0.05: real time    0.05
    --------------------------------------------
      LOOP:  cpu time  124.08: real time  124.13

 eigenvalue-minimisations  :  1704
 total energy-change (2. order) :-0.3220152E+00  (-0.3219842E+00)
 number of electron   80.0000001 magnetization 
 augmentation part    12.5552199 magnetization 

 Broyden mixing:
  rms(total) = 0.36433E+02    rms(broyden)= 0.36423E+02
  rms(prec ) = 0.71784E+02
  weight for this iteration     100.00

 Free energy of the ion-electron system (eV)
  ---------------------------------------------------
  alpha Z        PSCENC =       502.70847669
  Ewald energy   TEWEN  =     -5725.19466925
  -1/2 Hartree   DENC   =       -96.28621696
  -exchange  EXHF       =         0.00000000
  -V(xc)+E(xc)   XCENC  =       271.39507225
  PAW double counting   =      1252.08969465    -1256.93138471
  entropy T*S    EENTRO =        -0.56143179
  eigenvalues    EBANDS =     -5207.54154625
  atomic energy  EATOM  =      7454.08711683
  ---------------------------------------------------
  free energy    TOTEN  =     -2806.23488854 eV

  energy without entropy =    -2805.67345675  energy(sigma->0) =    -2805.95417265


--------------------------------------------------------------------------------------------------------




----------------------------------------- Iteration    1(   6)  ---------------------------------------


    POTLOK:  cpu time    1.91: real time    1.91
    SETDIJ:  cpu time    1.78: real time    1.78
     EDDAV:  cpu time  107.37: real time  107.37
       DOS:  cpu time    0.04: real time    0.05
    CHARGE:  cpu time    8.86: real time    8.86
    MIXING:  cpu time    0.01: real time    0.01
    --------------------------------------------
      LOOP:  cpu time  119.98: real time  120.03

 eigenvalue-minimisations  :  1536
 total energy-change (2. order) : 0.2322938E+04  (-0.8872979E+03)
 number of electron   80.0000002 magnetization 
 augmentation part    16.1242523 magnetization 

 Broyden mixing:
  rms(total) = 0.13324E+02    rms(broyden)= 0.13317E+02
  rms(prec ) = 0.25001E+02
  weight for this iteration     100.00

 eigenvalues of (default mixing * dielectric matrix)
  average eigenvalue GAMMA=   0.8408
  0.8408

 Free energy of the ion-electron system (eV)
  ---------------------------------------------------
  alpha Z        PSCENC =       502.70847669
  Ewald energy   TEWEN  =     -5725.19466925
  -1/2 Hartree   DENC   =     -1517.51539717
  -exchange  EXHF       =         0.00000000
  -V(xc)+E(xc)   XCENC  =       344.53821582
  PAW double counting   =      4371.75475812    -4159.26229916
  entropy T*S    EENTRO =         0.00000000
  eigenvalues    EBANDS =     -1754.41298870
  atomic energy  EATOM  =      7454.08711683
  ---------------------------------------------------
  free energy    TOTEN  =      -483.29678682 eV

  energy without entropy =     -483.29678682  energy(sigma->0) =     -483.29678682


--------------------------------------------------------------------------------------------------------




----------------------------------------- Iteration    1(   7)  ---------------------------------------


    POTLOK:  cpu time    1.98: real time    1.98
    SETDIJ:  cpu time    1.85: real time    1.85
     EDDAV:  cpu time  111.37: real time  111.38
       DOS:  cpu time    0.04: real time    0.04
    CHARGE:  cpu time    9.42: real time    9.42
    MIXING:  cpu time    0.03: real time    0.03
    --------------------------------------------
      LOOP:  cpu time  124.68: real time  124.70

 eigenvalue-minimisations  :  1632
 total energy-change (2. order) : 0.3274072E+03  (-0.9603060E+02)
 number of electron   80.0000001 magnetization 
 augmentation part    14.5148061 magnetization 

 Broyden mixing:
  rms(total) = 0.70329E+01    rms(broyden)= 0.70309E+01
  rms(prec ) = 0.11874E+02
  weight for this iteration     100.00

 eigenvalues of (default mixing * dielectric matrix)
  average eigenvalue GAMMA=   1.0648
  1.0648  1.0648

 Free energy of the ion-electron system (eV)
  ---------------------------------------------------
  alpha Z        PSCENC =       502.70847669
  Ewald energy   TEWEN  =     -5725.19466925
  -1/2 Hartree   DENC   =     -1625.61681890
  -exchange  EXHF       =         0.00000000
  -V(xc)+E(xc)   XCENC  =       357.36583650
  PAW double counting   =      4586.40550802    -4464.23780481
  entropy T*S    EENTRO =         0.00000000
  eigenvalues    EBANDS =     -1241.40727105
  atomic energy  EATOM  =      7454.08711683
  ---------------------------------------------------
  free energy    TOTEN  =      -155.88962597 eV

  energy without entropy =     -155.88962597  energy(sigma->0) =     -155.88962597


--------------------------------------------------------------------------------------------------------




----------------------------------------- Iteration    1(   8)  ---------------------------------------


    POTLOK:  cpu time    2.34: real time    2.33
    SETDIJ:  cpu time    1.54: real time    1.54
     EDDAV:  cpu time  113.99: real time  113.98
       DOS:  cpu time    0.05: real time    0.05
    CHARGE:  cpu time    8.65: real time    8.65
    MIXING:  cpu time    0.08: real time    0.08
    --------------------------------------------
      LOOP:  cpu time  126.65: real time  126.65

 eigenvalue-minimisations  :  1680
 total energy-change (2. order) : 0.5786418E+02  (-0.2051182E+02)
 number of electron   80.0000001 magnetization 
 augmentation part    13.4641913 magnetization 

 Broyden mixing:
  rms(total) = 0.31061E+01    rms(broyden)= 0.31054E+01
  rms(prec ) = 0.54898E+01
  weight for this iteration     100.00

 eigenvalues of (default mixing * dielectric matrix)
  average eigenvalue GAMMA=   1.5596
  1.1069  1.1069  2.4651

 Free energy of the ion-electron system (eV)
  ---------------------------------------------------
  alpha Z        PSCENC =       502.70847669
  Ewald energy   TEWEN  =     -5725.19466925
  -1/2 Hartree   DENC   =     -1636.36864167
  -exchange  EXHF       =         0.00000000
  -V(xc)+E(xc)   XCENC  =       358.26118682
  PAW double counting   =      4735.61766401    -4671.50224953
  entropy T*S    EENTRO =        -0.01940896
  eigenvalues    EBANDS =     -1115.61492189
  atomic energy  EATOM  =      7454.08711683
  ---------------------------------------------------
  free energy    TOTEN  =       -98.02544695 eV

  energy without entropy =      -98.00603799  energy(sigma->0) =      -98.01574247


--------------------------------------------------------------------------------------------------------




----------------------------------------- Iteration    1(   9)  ---------------------------------------


    POTLOK:  cpu time    2.28: real time    2.28
    SETDIJ:  cpu time    1.81: real time    1.81
     EDDAV:  cpu time  109.20: real time  109.19
       DOS:  cpu time    0.04: real time    0.04
    CHARGE:  cpu time    9.08: real time    9.08
    MIXING:  cpu time    0.08: real time    0.08
    --------------------------------------------
      LOOP:  cpu time  122.50: real time  122.50

 eigenvalue-minimisations  :  1560
 total energy-change (2. order) :-0.7155935E+01  (-0.2849878E+02)
 number of electron   80.0000001 magnetization 
 augmentation part    12.1610937 magnetization 

 Broyden mixing:
  rms(total) = 0.26100E+01    rms(broyden)= 0.26099E+01
  rms(prec ) = 0.59859E+01
  weight for this iteration     100.00

 eigenvalues of (default mixing * dielectric matrix)
  average eigenvalue GAMMA=   1.2697
  2.3935  1.0219  1.0219  0.6416

 Free energy of the ion-electron system (eV)
  ---------------------------------------------------
  alpha Z        PSCENC =       502.70847669
  Ewald energy   TEWEN  =     -5725.19466925
  -1/2 Hartree   DENC   =     -1829.90774307
  -exchange  EXHF       =         0.00000000
  -V(xc)+E(xc)   XCENC  =       365.54751834
  PAW double counting   =      5221.37477326    -5184.53964884
  entropy T*S    EENTRO =         0.00000000
  eigenvalues    EBANDS =      -909.25720577
  atomic energy  EATOM  =      7454.08711683
  ---------------------------------------------------
  free energy    TOTEN  =      -105.18138181 eV

  energy without entropy =     -105.18138181  energy(sigma->0) =     -105.18138181


--------------------------------------------------------------------------------------------------------




----------------------------------------- Iteration    1(  10)  ---------------------------------------


    POTLOK:  cpu time    2.36: real time    2.36
    SETDIJ:  cpu time    1.58: real time    1.58
     EDDAV:  cpu time  106.87: real time  106.87
       DOS:  cpu time    0.04: real time    0.04
    CHARGE:  cpu time    8.83: real time    8.83
    MIXING:  cpu time    0.07: real time    0.07
    --------------------------------------------
      LOOP:  cpu time  119.76: real time  119.77

 eigenvalue-minimisations  :  1632
 total energy-change (2. order) : 0.2087345E+02  (-0.1952476E+01)
 number of electron   80.0000001 magnetization 
 augmentation part    11.9119700 magnetization 

 Broyden mixing:
  rms(total) = 0.11337E+01    rms(broyden)= 0.11337E+01
  rms(prec ) = 0.27072E+01
  weight for this iteration     100.00

 eigenvalues of (default mixing * dielectric matrix)
  average eigenvalue GAMMA=   1.2252
  2.1932  1.1112  1.1112  0.8551  0.8551

 Free energy of the ion-electron system (eV)
  ---------------------------------------------------
  alpha Z        PSCENC =       502.70847669
  Ewald energy   TEWEN  =     -5725.19466925
  -1/2 Hartree   DENC   =     -1795.85582109
  -exchange  EXHF       =         0.00000000
  -V(xc)+E(xc)   XCENC  =       365.72328709
  PAW double counting   =      5113.76059325    -5078.35437335
  entropy T*S    EENTRO =         0.00000000
  eigenvalues    EBANDS =      -921.18254049
  atomic energy  EATOM  =      7454.08711683
  ---------------------------------------------------
  free energy    TOTEN  =       -84.30793032 eV

  energy without entropy =      -84.30793032  energy(sigma->0) =      -84.30793032


--------------------------------------------------------------------------------------------------------




----------------------------------------- Iteration    1(  11)  ---------------------------------------


    POTLOK:  cpu time    2.30: real time    2.31
    SETDIJ:  cpu time    1.59: real time    1.59
     EDDAV:  cpu time  111.26: real time  111.25
       DOS:  cpu time    0.04: real time    0.04
    CHARGE:  cpu time    9.06: real time    9.05
    MIXING:  cpu time    0.08: real time    0.08
    --------------------------------------------
      LOOP:  cpu time  124.33: real time  124.33

 eigenvalue-minimisations  :  1680
 total energy-change (2. order) : 0.3622369E+01  (-0.7029725E+00)
 number of electron   80.0000001 magnetization 
 augmentation part    11.8671768 magnetization 

 Broyden mixing:
  rms(total) = 0.45286E+00    rms(broyden)= 0.45272E+00
  rms(prec ) = 0.99206E+00
  weight for this iteration     100.00

 eigenvalues of (default mixing * dielectric matrix)
  average eigenvalue GAMMA=   1.4267
  2.8028  1.4187  1.4187  0.9288  0.9957  0.9957

 Free energy of the ion-electron system (eV)
  ---------------------------------------------------
  alpha Z        PSCENC =       502.70847669
  Ewald energy   TEWEN  =     -5725.19466925
  -1/2 Hartree   DENC   =     -1766.97671071
  -exchange  EXHF       =         0.00000000
  -V(xc)+E(xc)   XCENC  =       364.85529981
  PAW double counting   =      5032.68493819    -4993.80290422
  entropy T*S    EENTRO =         0.00000000
  eigenvalues    EBANDS =      -949.04710862
  atomic energy  EATOM  =      7454.08711683
  ---------------------------------------------------
  free energy    TOTEN  =       -80.68556127 eV

  energy without entropy =      -80.68556127  energy(sigma->0) =      -80.68556127


--------------------------------------------------------------------------------------------------------




----------------------------------------- Iteration    1(  12)  ---------------------------------------


    POTLOK:  cpu time    2.17: real time    2.17
    SETDIJ:  cpu time    1.95: real time    1.95
     EDDAV:  cpu time  108.11: real time  108.11
       DOS:  cpu time    0.05: real time    0.04
    CHARGE:  cpu time    8.69: real time    8.69
    MIXING:  cpu time    0.12: real time    0.12
    --------------------------------------------
      LOOP:  cpu time  121.09: real time  121.09

 eigenvalue-minimisations  :  1584
 total energy-change (2. order) :-0.2074724E+00  (-0.4641688E-01)
 number of electron   80.0000001 magnetization 
 augmentation part    11.9219063 magnetization 

 Broyden mixing:
  rms(total) = 0.46505E+00    rms(broyden)= 0.46505E+00
  rms(prec ) = 0.10409E+01
  weight for this iteration     100.00

 eigenvalues of (default mixing * dielectric matrix)
  average eigenvalue GAMMA=   1.4038
  2.8126  2.0225  1.2115  1.0187  0.9829  0.8892  0.8892

 Free energy of the ion-electron system (eV)
  ---------------------------------------------------
  alpha Z        PSCENC =       502.70847669
  Ewald energy   TEWEN  =     -5725.19466925
  -1/2 Hartree   DENC   =     -1774.04636674
  -exchange  EXHF       =         0.00000000
  -V(xc)+E(xc)   XCENC  =       365.37545314
  PAW double counting   =      5006.55216131    -4957.52422329
  entropy T*S    EENTRO =         0.00000000
  eigenvalues    EBANDS =      -952.85098234
  atomic energy  EATOM  =      7454.08711683
  ---------------------------------------------------
  free energy    TOTEN  =       -80.89303366 eV

  energy without entropy =      -80.89303366  energy(sigma->0) =      -80.89303366


--------------------------------------------------------------------------------------------------------




----------------------------------------- Iteration    1(  13)  ---------------------------------------


    POTLOK:  cpu time    2.24: real time    2.24
    SETDIJ:  cpu time    1.83: real time    1.83
     EDDAV:  cpu time  111.27: real time  111.27
       DOS:  cpu time    0.04: real time    0.04
    CHARGE:  cpu time    9.19: real time    9.19
    MIXING:  cpu time    0.04: real time    0.04
    --------------------------------------------
      LOOP:  cpu time  124.62: real time  124.67

 eigenvalue-minimisations  :  1608
 total energy-change (2. order) : 0.2124488E+00  (-0.6526132E+00)
 number of electron   80.0000001 magnetization 
 augmentation part    12.0937410 magnetization 

 Broyden mixing:
  rms(total) = 0.34054E+00    rms(broyden)= 0.34047E+00
  rms(prec ) = 0.86307E+00
  weight for this iteration     100.00

 eigenvalues of (default mixing * dielectric matrix)
  average eigenvalue GAMMA=   1.2320
  2.8087  2.0172  1.2145  1.0015  0.9856  0.8902  0.8902  0.0484

 Free energy of the ion-electron system (eV)
  ---------------------------------------------------
  alpha Z        PSCENC =       502.70847669
  Ewald energy   TEWEN  =     -5725.19466925
  -1/2 Hartree   DENC   =     -1762.12136642
  -exchange  EXHF       =         0.00000000
  -V(xc)+E(xc)   XCENC  =       365.27760138
  PAW double counting   =      4966.05273664    -4915.13367644
  entropy T*S    EENTRO =         0.00000000
  eigenvalues    EBANDS =      -966.35680423
  atomic energy  EATOM  =      7454.08711683
  ---------------------------------------------------
  free energy    TOTEN  =       -80.68058481 eV

  energy without entropy =      -80.68058481  energy(sigma->0) =      -80.68058481


--------------------------------------------------------------------------------------------------------




----------------------------------------- Iteration    1(  14)  ---------------------------------------


    POTLOK:  cpu time    2.20: real time    2.20
    SETDIJ:  cpu time    1.39: real time    1.39
     EDDAV:  cpu time  108.39: real time  108.39
       DOS:  cpu time    0.04: real time    0.04
    CHARGE:  cpu time    9.55: real time    9.55
    MIXING:  cpu time    0.02: real time    0.02
    --------------------------------------------
      LOOP:  cpu time  121.60: real time  121.60

 eigenvalue-minimisations  :  1488
 total energy-change (2. order) : 0.6442006E-01  (-0.1695232E-01)
 number of electron   80.0000001 magnetization 
 augmentation part    12.0352975 magnetization 

 Broyden mixing:
  rms(total) = 0.30200E+00    rms(broyden)= 0.30200E+00
  rms(prec ) = 0.74843E+00
  weight for this iteration     100.00

 eigenvalues of (default mixing * dielectric matrix)
  average eigenvalue GAMMA=   1.2151
  2.7836  1.9986  1.2087  0.9913  0.9913  0.8983  0.8983  0.5827  0.5827

 Free energy of the ion-electron system (eV)
  ---------------------------------------------------
  alpha Z        PSCENC =       502.70847669
  Ewald energy   TEWEN  =     -5725.19466925
  -1/2 Hartree   DENC   =     -1764.00772721
  -exchange  EXHF       =         0.00000000
  -V(xc)+E(xc)   XCENC  =       365.33959216
  PAW double counting   =      4970.73056164    -4919.97999951
  entropy T*S    EENTRO =         0.00000000
  eigenvalues    EBANDS =      -964.29951610
  atomic energy  EATOM  =      7454.08711683
  ---------------------------------------------------
  free energy    TOTEN  =       -80.61616475 eV

  energy without entropy =      -80.61616475  energy(sigma->0) =      -80.61616475


--------------------------------------------------------------------------------------------------------




----------------------------------------- Iteration    1(  15)  ---------------------------------------


    POTLOK:  cpu time    2.28: real time    2.28
    SETDIJ:  cpu time    2.00: real time    2.00
     EDDAV:  cpu time  110.53: real time  110.52
       DOS:  cpu time    0.04: real time    0.04
    CHARGE:  cpu time    8.47: real time    8.47
    MIXING:  cpu time    0.10: real time    0.10
    --------------------------------------------
      LOOP:  cpu time  123.43: real time  123.45

 eigenvalue-minimisations  :  1560
 total energy-change (2. order) : 0.1948690E+00  (-0.8242260E-01)
 number of electron   80.0000001 magnetization 
 augmentation part    11.9556975 magnetization 

 Broyden mixing:
  rms(total) = 0.50571E-01    rms(broyden)= 0.50545E-01
  rms(prec ) = 0.13276E+00
  weight for this iteration     100.00

 eigenvalues of (default mixing * dielectric matrix)
  average eigenvalue GAMMA=   1.2676
  2.5964  2.2183  1.3579  1.3579  0.9995  0.9995  0.9424  0.9424  0.6310  0.6310

 Free energy of the ion-electron system (eV)
  ---------------------------------------------------
  alpha Z        PSCENC =       502.70847669
  Ewald energy   TEWEN  =     -5725.19466925
  -1/2 Hartree   DENC   =     -1770.09538404
  -exchange  EXHF       =         0.00000000
  -V(xc)+E(xc)   XCENC  =       365.46745665
  PAW double counting   =      4985.69179313    -4934.75427830
  entropy T*S    EENTRO =         0.00000000
  eigenvalues    EBANDS =      -958.33180751
  atomic energy  EATOM  =      7454.08711683
  ---------------------------------------------------
  free energy    TOTEN  =       -80.42129580 eV

  energy without entropy =      -80.42129580  energy(sigma->0) =      -80.42129580


--------------------------------------------------------------------------------------------------------




----------------------------------------- Iteration    1(  16)  ---------------------------------------


    POTLOK:  cpu time    2.15: real time    2.15
    SETDIJ:  cpu time    1.70: real time    1.71
     EDDAV:  cpu time  113.77: real time  113.76
       DOS:  cpu time    0.04: real time    0.04
    CHARGE:  cpu time    8.60: real time    8.60
    MIXING:  cpu time    0.09: real time    0.09
    --------------------------------------------
      LOOP:  cpu time  126.36: real time  126.35

 eigenvalue-minimisations  :  1752
 total energy-change (2. order) : 0.5059356E-02  (-0.3402117E-02)
 number of electron   80.0000001 magnetization 
 augmentation part    11.9536984 magnetization 

 Broyden mixing:
  rms(total) = 0.17838E-01    rms(broyden)= 0.17823E-01
  rms(prec ) = 0.42629E-01
  weight for this iteration     100.00

 eigenvalues of (default mixing * dielectric matrix)
  average eigenvalue GAMMA=   1.2855
  2.5418  2.5418  1.5686  1.5686  0.9852  0.9852  0.9128  0.9037  0.9037  0.6145
  0.6145

 Free energy of the ion-electron system (eV)
  ---------------------------------------------------
  alpha Z        PSCENC =       502.70847669
  Ewald energy   TEWEN  =     -5725.19466925
  -1/2 Hartree   DENC   =     -1770.68089662
  -exchange  EXHF       =         0.00000000
  -V(xc)+E(xc)   XCENC  =       365.45149609
  PAW double counting   =      4987.43926273    -4936.70631181
  entropy T*S    EENTRO =         0.00000000
  eigenvalues    EBANDS =      -957.52071110
  atomic energy  EATOM  =      7454.08711683
  ---------------------------------------------------
  free energy    TOTEN  =       -80.41623645 eV

  energy without entropy =      -80.41623645  energy(sigma->0) =      -80.41623645


--------------------------------------------------------------------------------------------------------




----------------------------------------- Iteration    1(  17)  ---------------------------------------


    POTLOK:  cpu time    2.37: real time    2.37
    SETDIJ:  cpu time    1.57: real time    1.57
     EDDAV:  cpu time  115.02: real time  115.01
       DOS:  cpu time    0.04: real time    0.04
    CHARGE:  cpu time    8.80: real time    8.80
    MIXING:  cpu time    0.08: real time    0.08
    --------------------------------------------
      LOOP:  cpu time  127.88: real time  127.87

 eigenvalue-minimisations  :  1632
 total energy-change (2. order) : 0.5015837E-03  (-0.1574648E-03)
 number of electron   80.0000001 magnetization 
 augmentation part    11.9486845 magnetization 

 Broyden mixing:
  rms(total) = 0.12204E-01    rms(broyden)= 0.12204E-01
  rms(prec ) = 0.31465E-01
  weight for this iteration     100.00

 eigenvalues of (default mixing * dielectric matrix)
  average eigenvalue GAMMA=   1.3662
  2.8185  2.8185  2.0104  1.3469  1.3469  0.9864  0.9864  0.9863  0.9863  0.8549
  0.6261  0.6261

 Free energy of the ion-electron system (eV)
  ---------------------------------------------------
  alpha Z        PSCENC =       502.70847669
  Ewald energy   TEWEN  =     -5725.19466925
  -1/2 Hartree   DENC   =     -1771.31993445
  -exchange  EXHF       =         0.00000000
  -V(xc)+E(xc)   XCENC  =       365.47902439
  PAW double counting   =      4988.69237121    -4938.27059886
  entropy T*S    EENTRO =         0.00000000
  eigenvalues    EBANDS =      -956.59752142
  atomic energy  EATOM  =      7454.08711683
  ---------------------------------------------------
  free energy    TOTEN  =       -80.41573486 eV

  energy without entropy =      -80.41573486  energy(sigma->0) =      -80.41573486


--------------------------------------------------------------------------------------------------------




----------------------------------------- Iteration    1(  18)  ---------------------------------------


    POTLOK:  cpu time    2.19: real time    2.19
    SETDIJ:  cpu time    1.62: real time    1.62
     EDDAV:  cpu time  107.88: real time  107.87
       DOS:  cpu time    0.04: real time    0.04
    CHARGE:  cpu time    8.66: real time    8.66
    MIXING:  cpu time    0.01: real time    0.01
    --------------------------------------------
      LOOP:  cpu time  120.40: real time  120.40

 eigenvalue-minimisations  :  1488
 total energy-change (2. order) : 0.1106626E-03  (-0.8541905E-03)
 number of electron   80.0000001 magnetization 
 augmentation part    11.9401963 magnetization 

 Broyden mixing:
  rms(total) = 0.14015E-01    rms(broyden)= 0.14014E-01
  rms(prec ) = 0.31484E-01
  weight for this iteration     100.00

 eigenvalues of (default mixing * dielectric matrix)
  average eigenvalue GAMMA=   1.3738
  2.6175  2.6175  2.1550  2.1550  0.9811  0.9811  1.3368  0.9179  0.9179  0.9663
  0.9663  0.6237  0.6237

 Free energy of the ion-electron system (eV)
  ---------------------------------------------------
  alpha Z        PSCENC =       502.70847669
  Ewald energy   TEWEN  =     -5725.19466925
  -1/2 Hartree   DENC   =     -1772.10453790
  -exchange  EXHF       =         0.00000000
  -V(xc)+E(xc)   XCENC  =       365.50102828
  PAW double counting   =      4989.95352756    -4939.57760294
  entropy T*S    EENTRO =         0.00000000
  eigenvalues    EBANDS =      -955.78896346
  atomic energy  EATOM  =      7454.08711683
  ---------------------------------------------------
  free energy    TOTEN  =       -80.41562420 eV

  energy without entropy =      -80.41562420  energy(sigma->0) =      -80.41562420


--------------------------------------------------------------------------------------------------------




----------------------------------------- Iteration    1(  19)  ---------------------------------------


    POTLOK:  cpu time    2.08: real time    2.08
    SETDIJ:  cpu time    1.49: real time    1.49
     EDDAV:  cpu time  112.15: real time  112.14
       DOS:  cpu time    0.04: real time    0.04
    CHARGE:  cpu time    9.00: real time    9.00
    MIXING:  cpu time    0.12: real time    0.12
    --------------------------------------------
      LOOP:  cpu time  124.89: real time  124.89

 eigenvalue-minimisations  :  1632
 total energy-change (2. order) : 0.3217055E-03  (-0.1481235E-03)
 number of electron   80.0000001 magnetization 
 augmentation part    11.9437606 magnetization 

 Broyden mixing:
  rms(total) = 0.44692E-02    rms(broyden)= 0.44691E-02
  rms(prec ) = 0.74944E-02
  weight for this iteration     100.00

 eigenvalues of (default mixing * dielectric matrix)
  average eigenvalue GAMMA=   1.3878
  2.9291  2.9291  2.1503  2.1503  0.9860  0.9860  1.1204  1.1204  1.0293  1.0293
  0.9427  0.8099  0.6231  0.6231

 Free energy of the ion-electron system (eV)
  ---------------------------------------------------
  alpha Z        PSCENC =       502.70847669
  Ewald energy   TEWEN  =     -5725.19466925
  -1/2 Hartree   DENC   =     -1771.79392354
  -exchange  EXHF       =         0.00000000
  -V(xc)+E(xc)   XCENC  =       365.49431492
  PAW double counting   =      4989.15706825    -4938.81234756
  entropy T*S    EENTRO =         0.00000000
  eigenvalues    EBANDS =      -956.06133884
  atomic energy  EATOM  =      7454.08711683
  ---------------------------------------------------
  free energy    TOTEN  =       -80.41530249 eV

  energy without entropy =      -80.41530249  energy(sigma->0) =      -80.41530249


--------------------------------------------------------------------------------------------------------




----------------------------------------- Iteration    1(  20)  ---------------------------------------


    POTLOK:  cpu time    2.74: real time    2.74
    SETDIJ:  cpu time    1.60: real time    1.60
     EDDAV:  cpu time  111.43: real time  111.43
       DOS:  cpu time    0.00: real time    0.00
    CHARGE:  cpu time    9.07: real time    9.07
    MIXING:  cpu time    0.01: real time    0.01
    --------------------------------------------
      LOOP:  cpu time  124.86: real time  124.86

 eigenvalue-minimisations  :  1608
 total energy-change (2. order) : 0.7938114E-05  (-0.4283366E-05)
 number of electron   80.0000001 magnetization 
 augmentation part    11.9433524 magnetization 

 Broyden mixing:
  rms(total) = 0.19389E-02    rms(broyden)= 0.19388E-02
  rms(prec ) = 0.31420E-02
  weight for this iteration     100.00

 eigenvalues of (default mixing * dielectric matrix)
  average eigenvalue GAMMA=   1.4129
  2.8456  2.7549  2.7549  2.0557  1.4441  1.4441  0.9821  0.9821  0.6239  0.6239
  1.0326  1.0326  1.0020  0.8076  0.8076

 Free energy of the ion-electron system (eV)
  ---------------------------------------------------
  alpha Z        PSCENC =       502.70847669
  Ewald energy   TEWEN  =     -5725.19466925
  -1/2 Hartree   DENC   =     -1771.75378679
  -exchange  EXHF       =         0.00000000
  -V(xc)+E(xc)   XCENC  =       365.49389754
  PAW double counting   =      4989.04082863    -4938.75290432
  entropy T*S    EENTRO =         0.00000000
  eigenvalues    EBANDS =      -956.04425387
  atomic energy  EATOM  =      7454.08711683
  ---------------------------------------------------
  free energy    TOTEN  =       -80.41529456 eV

  energy without entropy =      -80.41529456  energy(sigma->0) =      -80.41529456


--------------------------------------------------------------------------------------------------------




----------------------------------------- Iteration    1(  21)  ---------------------------------------


    POTLOK:  cpu time    2.13: real time    2.13
    SETDIJ:  cpu time    1.48: real time    1.48
     EDDAV:  cpu time  119.36: real time  119.35
       DOS:  cpu time    0.04: real time    0.04
    CHARGE:  cpu time    8.24: real time    8.24
    MIXING:  cpu time    0.04: real time    0.05
    --------------------------------------------
      LOOP:  cpu time  131.30: real time  131.30

 eigenvalue-minimisations  :  1824
 total energy-change (2. order) : 0.1247699E-06  (-0.2250679E-05)
 number of electron   80.0000001 magnetization 
 augmentation part    11.9432269 magnetization 

 Broyden mixing:
  rms(total) = 0.80772E-03    rms(broyden)= 0.80750E-03
  rms(prec ) = 0.19045E-02
  weight for this iteration     100.00

 eigenvalues of (default mixing * dielectric matrix)
  average eigenvalue GAMMA=   1.5111
  4.0121  2.8566  2.7385  2.2215  2.0112  0.9821  0.9821  0.6236  0.6236  1.1822
  1.1822  0.9360  0.9360  1.0134  1.0134  0.8634

 Free energy of the ion-electron system (eV)
  ---------------------------------------------------
  alpha Z        PSCENC =       502.70847669
  Ewald energy   TEWEN  =     -5725.19466925
  -1/2 Hartree   DENC   =     -1771.72727638
  -exchange  EXHF       =         0.00000000
  -V(xc)+E(xc)   XCENC  =       365.49370327
  PAW double counting   =      4989.03564040    -4938.76873806
  entropy T*S    EENTRO =         0.00000000
  eigenvalues    EBANDS =      -956.04954793
  atomic energy  EATOM  =      7454.08711683
  ---------------------------------------------------
  free energy    TOTEN  =       -80.41529443 eV

  energy without entropy =      -80.41529443  energy(sigma->0) =      -80.41529443


--------------------------------------------------------------------------------------------------------




----------------------------------------- Iteration    1(  22)  ---------------------------------------


    POTLOK:  cpu time    2.28: real time    2.28
    SETDIJ:  cpu time    1.68: real time    1.68
     EDDAV:  cpu time  117.66: real time  117.66
       DOS:  cpu time    0.04: real time    0.04
    CHARGE:  cpu time    8.75: real time    8.75
    MIXING:  cpu time    0.01: real time    0.01
    --------------------------------------------
      LOOP:  cpu time  130.44: real time  130.44

 eigenvalue-minimisations  :  1728
 total energy-change (2. order) : 0.2422596E-05  (-0.5073996E-06)
 number of electron   80.0000001 magnetization 
 augmentation part    11.9426909 magnetization 

 Broyden mixing:
  rms(total) = 0.29492E-03    rms(broyden)= 0.29487E-03
  rms(prec ) = 0.71628E-03
  weight for this iteration     100.00

 eigenvalues of (default mixing * dielectric matrix)
  average eigenvalue GAMMA=   1.4626
  3.7829  2.9504  2.4819  2.4819  1.8887  0.9815  0.9815  1.2842  1.2842  0.6236
  0.6236  1.0920  0.9680  0.9680  0.9430  0.8337  0.6959

 Free energy of the ion-electron system (eV)
  ---------------------------------------------------
  alpha Z        PSCENC =       502.70847669
  Ewald energy   TEWEN  =     -5725.19466925
  -1/2 Hartree   DENC   =     -1771.75709963
  -exchange  EXHF       =         0.00000000
  -V(xc)+E(xc)   XCENC  =       365.49482574
  PAW double counting   =      4989.16011063    -4938.90949732
  entropy T*S    EENTRO =         0.00000000
  eigenvalues    EBANDS =      -956.00455569
  atomic energy  EATOM  =      7454.08711683
  ---------------------------------------------------
  free energy    TOTEN  =       -80.41529201 eV

  energy without entropy =      -80.41529201  energy(sigma->0) =      -80.41529201


--------------------------------------------------------------------------------------------------------




----------------------------------------- Iteration    1(  23)  ---------------------------------------


    POTLOK:  cpu time    2.46: real time    2.46
    SETDIJ:  cpu time    1.62: real time    1.62
     EDDAV:  cpu time  108.12: real time  108.11
       DOS:  cpu time    0.04: real time    0.04
    CHARGE:  cpu time    9.12: real time    9.11
    MIXING:  cpu time    0.41: real time    0.41
    --------------------------------------------
      LOOP:  cpu time  121.77: real time  121.77

 eigenvalue-minimisations  :  1608
 total energy-change (2. order) : 0.3501636E-06  (-0.8725514E-07)
 number of electron   80.0000001 magnetization 
 augmentation part    11.9425699 magnetization 

 Broyden mixing:
  rms(total) = 0.57832E-04    rms(broyden)= 0.57826E-04
  rms(prec ) = 0.12823E-03
  weight for this iteration     100.00

 eigenvalues of (default mixing * dielectric matrix)
  average eigenvalue GAMMA=   1.5409
  4.0883  3.2744  2.6883  2.1610  2.1610  1.9064  0.9817  0.9817  1.3144  1.3144
  0.6236  0.6236  0.9620  0.9620  0.9998  0.9203  0.9203  0.8520

 Free energy of the ion-electron system (eV)
  ---------------------------------------------------
  alpha Z        PSCENC =       502.70847669
  Ewald energy   TEWEN  =     -5725.19466925
  -1/2 Hartree   DENC   =     -1771.76326255
  -exchange  EXHF       =         0.00000000
  -V(xc)+E(xc)   XCENC  =       365.49488989
  PAW double counting   =      4989.17718541    -4938.92791594
  entropy T*S    EENTRO =         0.00000000
  eigenvalues    EBANDS =      -955.99711274
  atomic energy  EATOM  =      7454.08711683
  ---------------------------------------------------
  free energy    TOTEN  =       -80.41529166 eV

  energy without entropy =      -80.41529166  energy(sigma->0) =      -80.41529166


--------------------------------------------------------------------------------------------------------




----------------------------------------- Iteration    1(  24)  ---------------------------------------


    POTLOK:  cpu time    2.24: real time    2.24
    SETDIJ:  cpu time    1.78: real time    1.78
     EDDAV:  cpu time  105.44: real time  105.44
       DOS:  cpu time    0.04: real time    0.04
    CHARGE:  cpu time    9.16: real time    9.16
    MIXING:  cpu time    0.09: real time    0.09
    --------------------------------------------
      LOOP:  cpu time  118.76: real time  118.76

 eigenvalue-minimisations  :  1512
 total energy-change (2. order) :-0.8474126E-07  (-0.5657649E-08)
 number of electron   80.0000001 magnetization 
 augmentation part    11.9425593 magnetization 

 Broyden mixing:
  rms(total) = 0.40232E-04    rms(broyden)= 0.40232E-04
  rms(prec ) = 0.10329E-03
  weight for this iteration     100.00

 eigenvalues of (default mixing * dielectric matrix)
  average eigenvalue GAMMA=   1.5282
  4.2384  3.1029  2.7778  2.1704  2.1704  1.9136  1.4592  1.4592  0.9817  0.9817
  0.6236  0.6236  1.0269  0.9928  0.9928  0.8917  0.8917  0.8684  0.8684

 Free energy of the ion-electron system (eV)
  ---------------------------------------------------
  alpha Z        PSCENC =       502.70847669
  Ewald energy   TEWEN  =     -5725.19466925
  -1/2 Hartree   DENC   =     -1771.76242010
  -exchange  EXHF       =         0.00000000
  -V(xc)+E(xc)   XCENC  =       365.49484046
  PAW double counting   =      4989.17023446    -4938.92109079
  entropy T*S    EENTRO =         0.00000000
  eigenvalues    EBANDS =      -955.99778004
  atomic energy  EATOM  =      7454.08711683
  ---------------------------------------------------
  free energy    TOTEN  =       -80.41529174 eV

  energy without entropy =      -80.41529174  energy(sigma->0) =      -80.41529174


--------------------------------------------------------------------------------------------------------




----------------------------------------- Iteration    1(  25)  ---------------------------------------


    POTLOK:  cpu time    2.34: real time    2.34
    SETDIJ:  cpu time    1.46: real time    1.46
     EDDAV:  cpu time  127.37: real time  127.36
       DOS:  cpu time    0.04: real time    0.04
    CHARGE:  cpu time    8.34: real time    8.34
    MIXING:  cpu time    0.12: real time    0.12
    --------------------------------------------
      LOOP:  cpu time  139.68: real time  139.69

 eigenvalue-minimisations  :  1944
 total energy-change (2. order) :-0.1414628E-07  (-0.4287893E-09)
 number of electron   80.0000001 magnetization 
 augmentation part    11.9425472 magnetization 

 Broyden mixing:
  rms(total) = 0.33909E-04    rms(broyden)= 0.33909E-04
  rms(prec ) = 0.80935E-04
  weight for this iteration     100.00

 eigenvalues of (default mixing * dielectric matrix)
  average eigenvalue GAMMA=   1.5355
  4.2260  2.9939  2.7463  2.2539  2.2539  2.1871  1.7889  0.9818  0.9818  0.6236
  0.6236  1.2100  1.2100  0.9747  0.9747  1.0238  1.0238  0.8922  0.8922  0.8469

 Free energy of the ion-electron system (eV)
  ---------------------------------------------------
  alpha Z        PSCENC =       502.70847669
  Ewald energy   TEWEN  =     -5725.19466925
  -1/2 Hartree   DENC   =     -1771.76334258
  -exchange  EXHF       =         0.00000000
  -V(xc)+E(xc)   XCENC  =       365.49488335
  PAW double counting   =      4989.17029438    -4938.92147791
  entropy T*S    EENTRO =         0.00000000
  eigenvalues    EBANDS =      -955.99657327
  atomic energy  EATOM  =      7454.08711683
  ---------------------------------------------------
  free energy    TOTEN  =       -80.41529176 eV

  energy without entropy =      -80.41529176  energy(sigma->0) =      -80.41529176


--------------------------------------------------------------------------------------------------------




----------------------------------------- Iteration    1(  26)  ---------------------------------------


    POTLOK:  cpu time    2.30: real time    2.30
    SETDIJ:  cpu time    1.48: real time    1.48
     EDDAV:  cpu time  114.08: real time  114.07
       DOS:  cpu time    0.04: real time    0.04
    CHARGE:  cpu time    8.57: real time    8.57
    MIXING:  cpu time    0.05: real time    0.05
    --------------------------------------------
      LOOP:  cpu time  126.52: real time  126.53

 eigenvalue-minimisations  :  1632
 total energy-change (2. order) :-0.1209628E-09  (-0.1465019E-08)
 number of electron   80.0000001 magnetization 
 augmentation part    11.9425360 magnetization 

 Broyden mixing:
  rms(total) = 0.77616E-05    rms(broyden)= 0.77578E-05
  rms(prec ) = 0.12486E-04
  weight for this iteration     100.00

 eigenvalues of (default mixing * dielectric matrix)
  average eigenvalue GAMMA=   1.5457
  4.1253  3.1280  2.6840  2.6162  2.6162  2.0398  1.7362  0.9817  0.9817  1.3454
  1.3454  0.6236  0.6236  1.0249  1.0249  0.9794  0.8562  0.9443  0.9443  0.9193
  0.9193

 Free energy of the ion-electron system (eV)
  ---------------------------------------------------
  alpha Z        PSCENC =       502.70847669
  Ewald energy   TEWEN  =     -5725.19466925
  -1/2 Hartree   DENC   =     -1771.76391963
  -exchange  EXHF       =         0.00000000
  -V(xc)+E(xc)   XCENC  =       365.49488320
  PAW double counting   =      4989.17207930    -4938.92354736
  entropy T*S    EENTRO =         0.00000000
  eigenvalues    EBANDS =      -955.99571153
  atomic energy  EATOM  =      7454.08711683
  ---------------------------------------------------
  free energy    TOTEN  =       -80.41529176 eV

  energy without entropy =      -80.41529176  energy(sigma->0) =      -80.41529176


--------------------------------------------------------------------------------------------------------




----------------------------------------- Iteration    1(  27)  ---------------------------------------


    POTLOK:  cpu time    1.90: real time    1.91
    SETDIJ:  cpu time    1.71: real time    1.71
     EDDAV:  cpu time   92.84: real time   92.83
       DOS:  cpu time    0.04: real time    0.04
    CHARGE:  cpu time    8.65: real time    8.65
    MIXING:  cpu time    0.06: real time    0.06
    --------------------------------------------
      LOOP:  cpu time  105.20: real time  105.21

 eigenvalue-minimisations  :  1320
 total energy-change (2. order) :-0.1103672E-07  (-0.4470433E-10)
 number of electron   80.0000001 magnetization 
 augmentation part    11.9425386 magnetization 

 Broyden mixing:
  rms(total) = 0.39359E-05    rms(broyden)= 0.39350E-05
  rms(prec ) = 0.60936E-05
  weight for this iteration     100.00

 eigenvalues of (default mixing * dielectric matrix)
  average eigenvalue GAMMA=   1.5410
  4.2208  3.0758  2.7840  2.5408  2.5408  1.9131  1.9131  1.4660  1.4660  0.9817
  0.9817  0.6236  0.6236  1.1097  1.1097  1.0139  1.0139  0.9119  0.9119  0.9707
  0.8652  0.8652

 Free energy of the ion-electron system (eV)
  ---------------------------------------------------
  alpha Z        PSCENC =       502.70847669
  Ewald energy   TEWEN  =     -5725.19466925
  -1/2 Hartree   DENC   =     -1771.76389437
  -exchange  EXHF       =         0.00000000
  -V(xc)+E(xc)   XCENC  =       365.49488391
  PAW double counting   =      4989.17168352    -4938.92305025
  entropy T*S    EENTRO =         0.00000000
  eigenvalues    EBANDS =      -955.99583885
  atomic energy  EATOM  =      7454.08711683
  ---------------------------------------------------
  free energy    TOTEN  =       -80.41529177 eV

  energy without entropy =      -80.41529177  energy(sigma->0) =      -80.41529177


--------------------------------------------------------------------------------------------------------




----------------------------------------- Iteration    1(  28)  ---------------------------------------


    POTLOK:  cpu time    1.97: real time    1.97
    SETDIJ:  cpu time    1.80: real time    1.80
     EDDAV:  cpu time   79.21: real time   79.21
       DOS:  cpu time    0.04: real time    0.04
    CHARGE:  cpu time    8.96: real time    8.96
    MIXING:  cpu time    0.08: real time    0.08
    --------------------------------------------
      LOOP:  cpu time   92.07: real time   92.07

 eigenvalue-minimisations  :   936
 total energy-change (2. order) :-0.1502485E-08  (-0.6876192E-11)
 number of electron   80.0000001 magnetization 
 augmentation part    11.9425394 magnetization 

 Broyden mixing:
  rms(total) = 0.27799E-05    rms(broyden)= 0.27799E-05
  rms(prec ) = 0.43822E-05
  weight for this iteration     100.00

 eigenvalues of (default mixing * dielectric matrix)
  average eigenvalue GAMMA=   1.5382
  4.0519  3.2024  2.8024  2.5239  2.5239  2.3672  2.0684  0.9817  0.9817  1.4391
  1.4391  0.6236  0.6236  1.2235  1.2235  0.9176  0.9176  0.9852  0.9852  0.9691
  0.9138  0.8554  0.7586

 Free energy of the ion-electron system (eV)
  ---------------------------------------------------
  alpha Z        PSCENC =       502.70847669
  Ewald energy   TEWEN  =     -5725.19466925
  -1/2 Hartree   DENC   =     -1771.76385805
  -exchange  EXHF       =         0.00000000
  -V(xc)+E(xc)   XCENC  =       365.49488260
  PAW double counting   =      4989.17148701    -4938.92281032
  entropy T*S    EENTRO =         0.00000000
[...]
      1.972098  1.972098  1.972098     0.000000    0.000000    0.000000  
      5.916295  5.916295  5.916295     0.000000    0.000000    0.000000  
      1.972098  1.972098  0.000000    -0.007540    0.013913    0.000000  
      1.972098  1.972098  3.944197    -0.007540    0.013913    0.000000  
      1.972098  0.000000  1.972098     0.007540    0.000000    0.499750  
      1.972098  3.944197  1.972098     0.007540    0.000000    0.499750  
      0.000000  1.972098  1.972098     0.000000   -0.013913   -0.499750  
      3.944197  1.972098  1.972098     0.000000   -0.013913   -0.499750  
 
  16 f  =    7.603184 THz    47.772213 2PiTHz  253.614905 cm-1    31.444252 meV
             X         Y         Z           dx          dy          dz
      0.000000  0.000000  0.000000     0.000000    0.000000    0.000000  
      3.944197  3.944197  3.944197     0.000000    0.000000    0.000000  
      1.972098  1.972098  1.972098     0.000000    0.000000    0.000000  
      5.916295  5.916295  5.916295     0.000000    0.000000    0.000000  
      1.972098  1.972098  0.000000    -0.499347    0.025150    0.000000  
      1.972098  1.972098  3.944197     0.499347   -0.025150    0.000000  
      1.972098  0.000000  1.972098    -0.004477    0.000000   -0.025150  
      1.972098  3.944197  1.972098     0.004477    0.000000    0.025150  
      0.000000  1.972098  1.972098     0.000000    0.004477    0.499347  
      3.944197  1.972098  1.972098     0.000000   -0.004477   -0.499347  
 
  17 f  =    7.603184 THz    47.772213 2PiTHz  253.614905 cm-1    31.444252 meV
             X         Y         Z           dx          dy          dz
      0.000000  0.000000  0.000000     0.000000    0.000000    0.000000  
      3.944197  3.944197  3.944197     0.000000    0.000000    0.000000  
      1.972098  1.972098  1.972098     0.000000    0.000000    0.000000  
      5.916295  5.916295  5.916295     0.000000    0.000000    0.000000  
      1.972098  1.972098  0.000000     0.021175    0.358499    0.000000  
      1.972098  1.972098  3.944197    -0.021175   -0.358499    0.000000  
      1.972098  0.000000  1.972098    -0.347894    0.000000   -0.358499  
      1.972098  3.944197  1.972098     0.347894    0.000000    0.358499  
      0.000000  1.972098  1.972098     0.000000    0.347894   -0.021175  
      3.944197  1.972098  1.972098     0.000000   -0.347894    0.021175  
 
  18 f  =    7.603184 THz    47.772213 2PiTHz  253.614905 cm-1    31.444252 meV
             X         Y         Z           dx          dy          dz
      0.000000  0.000000  0.000000     0.000000    0.000000    0.000000  
      3.944197  3.944197  3.944197     0.000000    0.000000    0.000000  
      1.972098  1.972098  1.972098     0.000000    0.000000    0.000000  
      5.916295  5.916295  5.916295     0.000000    0.000000    0.000000  
      1.972098  1.972098  0.000000     0.014289    0.347630    0.000000  
      1.972098  1.972098  3.944197    -0.014289   -0.347630    0.000000  
      1.972098  0.000000  1.972098     0.359095    0.000000   -0.347630  
      1.972098  3.944197  1.972098    -0.359095    0.000000    0.347630  
      0.000000  1.972098  1.972098     0.000000   -0.359095   -0.014289  
      3.944197  1.972098  1.972098     0.000000    0.359095    0.014289  
 
  19 f  =    4.743623 THz    29.805065 2PiTHz  158.230240 cm-1    19.618056 meV
             X         Y         Z           dx          dy          dz
      0.000000  0.000000  0.000000    -0.167731    0.280618    0.000464  
      3.944197  3.944197  3.944197    -0.167731    0.280618    0.000464  
      1.972098  1.972098  1.972098     0.145058   -0.242685   -0.000401  
      5.916295  5.916295  5.916295     0.145058   -0.242685   -0.000401  
      1.972098  1.972098  0.000000     0.169531   -0.283629   -0.000437  
      1.972098  1.972098  3.944197     0.169531   -0.283629   -0.000437  
      1.972098  0.000000  1.972098     0.169531   -0.264297   -0.000469  
      1.972098  3.944197  1.972098     0.169531   -0.264297   -0.000469  
      0.000000  1.972098  1.972098     0.157976   -0.283629   -0.000469  
      3.944197  1.972098  1.972098     0.157976   -0.283629   -0.000469  
 
  20 f  =    4.743623 THz    29.805065 2PiTHz  158.230240 cm-1    19.618056 meV
             X         Y         Z           dx          dy          dz
      0.000000  0.000000  0.000000     0.018223    0.010353    0.326253  
      3.944197  3.944197  3.944197     0.018223    0.010353    0.326253  
      1.972098  1.972098  1.972098    -0.015760   -0.008953   -0.282151  
      5.916295  5.916295  5.916295    -0.015760   -0.008953   -0.282151  
      1.972098  1.972098  0.000000    -0.018419   -0.010464   -0.307278  
      1.972098  1.972098  3.944197    -0.018419   -0.010464   -0.307278  
      1.972098  0.000000  1.972098    -0.018419   -0.009751   -0.329754  
      1.972098  3.944197  1.972098    -0.018419   -0.009751   -0.329754  
      0.000000  1.972098  1.972098    -0.017164   -0.010464   -0.329754  
      3.944197  1.972098  1.972098    -0.017164   -0.010464   -0.329754  
 
  21 f  =    4.743623 THz    29.805065 2PiTHz  158.230240 cm-1    19.618056 meV
             X         Y         Z           dx          dy          dz
      0.000000  0.000000  0.000000     0.280026    0.167412   -0.020954  
      3.944197  3.944197  3.944197     0.280026    0.167412   -0.020954  
      1.972098  1.972098  1.972098    -0.242173   -0.144782    0.018121  
      5.916295  5.916295  5.916295    -0.242173   -0.144782    0.018121  
      1.972098  1.972098  0.000000    -0.283030   -0.169208    0.019735  
      1.972098  1.972098  3.944197    -0.283030   -0.169208    0.019735  
      1.972098  0.000000  1.972098    -0.283030   -0.157675    0.021179  
      1.972098  3.944197  1.972098    -0.283030   -0.157675    0.021179  
      0.000000  1.972098  1.972098    -0.263740   -0.169208    0.021179  
      3.944197  1.972098  1.972098    -0.263740   -0.169208    0.021179  
 
  22 f  =    3.238434 THz    20.347681 2PiTHz  108.022526 cm-1    13.393091 meV
             X         Y         Z           dx          dy          dz
      0.000000  0.000000  0.000000     0.001432   -0.705583   -0.030430  
      3.944197  3.944197  3.944197    -0.001432    0.705583    0.030430  
      1.972098  1.972098  1.972098     0.000000    0.000000    0.000000  
      5.916295  5.916295  5.916295     0.000000    0.000000    0.000000  
      1.972098  1.972098  0.000000     0.024716   -0.000050    0.000000  
      1.972098  1.972098  3.944197    -0.024716    0.000050    0.000000  
      1.972098  0.000000  1.972098     0.001066    0.000000   -0.000050  
      1.972098  3.944197  1.972098    -0.001066    0.000000    0.000050  
      0.000000  1.972098  1.972098     0.000000    0.001066    0.024716  
      3.944197  1.972098  1.972098     0.000000   -0.001066   -0.024716  
 
  23 f  =    3.238434 THz    20.347681 2PiTHz  108.022526 cm-1    13.393091 meV
             X         Y         Z           dx          dy          dz
      0.000000  0.000000  0.000000     0.704717   -0.000569    0.046360  
      3.944197  3.944197  3.944197    -0.704717    0.000569   -0.046360  
      1.972098  1.972098  1.972098     0.000000    0.000000    0.000000  
      5.916295  5.916295  5.916295     0.000000    0.000000    0.000000  
      1.972098  1.972098  0.000000     0.000020   -0.024686    0.000000  
      1.972098  1.972098  3.944197    -0.000020    0.024686    0.000000  
      1.972098  0.000000  1.972098    -0.001624    0.000000   -0.024686  
      1.972098  3.944197  1.972098     0.001624    0.000000    0.024686  
      0.000000  1.972098  1.972098     0.000000   -0.001624    0.000020  
      3.944197  1.972098  1.972098     0.000000    0.001624   -0.000020  
 
  24 f  =    3.238434 THz    20.347681 2PiTHz  108.022526 cm-1    13.393091 meV
             X         Y         Z           dx          dy          dz
      0.000000  0.000000  0.000000    -0.046341   -0.030458    0.704060  
      3.944197  3.944197  3.944197     0.046341    0.030458   -0.704060  
      1.972098  1.972098  1.972098     0.000000    0.000000    0.000000  
      5.916295  5.916295  5.916295     0.000000    0.000000    0.000000  
      1.972098  1.972098  0.000000     0.001067    0.001623    0.000000  
      1.972098  1.972098  3.944197    -0.001067   -0.001623    0.000000  
      1.972098  0.000000  1.972098    -0.024663    0.000000    0.001623  
      1.972098  3.944197  1.972098     0.024663    0.000000   -0.001623  
      0.000000  1.972098  1.972098     0.000000   -0.024663    0.001067  
      3.944197  1.972098  1.972098     0.000000    0.024663   -0.001067  
 
  25 f  =    2.680840 THz    16.844213 2PiTHz   89.423187 cm-1    11.087066 meV
             X         Y         Z           dx          dy          dz
      0.000000  0.000000  0.000000     0.235276   -0.419403   -0.000795  
      3.944197  3.944197  3.944197     0.235276   -0.419403   -0.000795  
      1.972098  1.972098  1.972098    -0.141851    0.252863    0.000479  
      5.916295  5.916295  5.916295    -0.141851    0.252863    0.000479  
      1.972098  1.972098  0.000000     0.114941   -0.204895   -0.000450  
      1.972098  1.972098  3.944197     0.114941   -0.204895   -0.000450  
      1.972098  0.000000  1.972098     0.114941   -0.237724   -0.000388  
      1.972098  3.944197  1.972098     0.114941   -0.237724   -0.000388  
      0.000000  1.972098  1.972098     0.133358   -0.204895   -0.000388  
      3.944197  1.972098  1.972098     0.133358   -0.204895   -0.000388  
 
  26 f  =    2.680840 THz    16.844213 2PiTHz   89.423187 cm-1    11.087066 meV
             X         Y         Z           dx          dy          dz
      0.000000  0.000000  0.000000     0.088498    0.048754    0.470155  
      3.944197  3.944197  3.944197     0.088498    0.048754    0.470155  
      1.972098  1.972098  1.972098    -0.053356   -0.029394   -0.283462  
      5.916295  5.916295  5.916295    -0.053356   -0.029394   -0.283462  
      1.972098  1.972098  0.000000     0.043235    0.023818    0.266491  
      1.972098  1.972098  3.944197     0.043235    0.023818    0.266491  
      1.972098  0.000000  1.972098     0.043235    0.027635    0.229689  
      1.972098  3.944197  1.972098     0.043235    0.027635    0.229689  
      0.000000  1.972098  1.972098     0.050162    0.023818    0.229689  
      3.944197  1.972098  1.972098     0.050162    0.023818    0.229689  
 
  27 f  =    2.680840 THz    16.844213 2PiTHz   89.423187 cm-1    11.087066 meV
             X         Y         Z           dx          dy          dz
      0.000000  0.000000  0.000000     0.409961    0.230170   -0.101035  
      3.944197  3.944197  3.944197     0.409961    0.230170   -0.101035  
      1.972098  1.972098  1.972098    -0.247170   -0.138772    0.060915  
      5.916295  5.916295  5.916295    -0.247170   -0.138772    0.060915  
      1.972098  1.972098  0.000000     0.200282    0.112447   -0.057268  
      1.972098  1.972098  3.944197     0.200282    0.112447   -0.057268  
      1.972098  0.000000  1.972098     0.200282    0.130464   -0.049360  
      1.972098  3.944197  1.972098     0.200282    0.130464   -0.049360  
      0.000000  1.972098  1.972098     0.232372    0.112447   -0.049360  
      3.944197  1.972098  1.972098     0.232372    0.112447   -0.049360  
 
  28 f/i=    2.673656 THz    16.799079 2PiTHz   89.183575 cm-1    11.057358 meV
             X         Y         Z           dx          dy          dz
      0.000000  0.000000  0.000000    -0.234006   -0.326662    0.000074  
      3.944197  3.944197  3.944197    -0.234006   -0.326662    0.000074  
      1.972098  1.972098  1.972098    -0.336995   -0.470429    0.000107  
      5.916295  5.916295  5.916295    -0.336995   -0.470429    0.000107  
      1.972098  1.972098  0.000000     0.015607    0.021786   -0.000009  
      1.972098  1.972098  3.944197     0.015607    0.021786   -0.000009  
      1.972098  0.000000  1.972098     0.015607    0.038367   -0.000005  
      1.972098  3.944197  1.972098     0.015607    0.038367   -0.000005  
      0.000000  1.972098  1.972098     0.027485    0.021786   -0.000005  
      3.944197  1.972098  1.972098     0.027485    0.021786   -0.000005  
 
  29 f/i=    2.673656 THz    16.799079 2PiTHz   89.183575 cm-1    11.057358 meV
             X         Y         Z           dx          dy          dz
      0.000000  0.000000  0.000000    -0.004304    0.002992   -0.401795  
      3.944197  3.944197  3.944197    -0.004304    0.002992   -0.401795  
      1.972098  1.972098  1.972098    -0.006198    0.004309   -0.578630  
      5.916295  5.916295  5.916295    -0.006198    0.004309   -0.578630  
      1.972098  1.972098  0.000000     0.000287   -0.000200    0.047192  
      1.972098  1.972098  3.944197     0.000287   -0.000200    0.047192  
      1.972098  0.000000  1.972098     0.000287   -0.000351    0.026797  
      1.972098  3.944197  1.972098     0.000287   -0.000351    0.026797  
      0.000000  1.972098  1.972098     0.000506   -0.000200    0.026797  
      3.944197  1.972098  1.972098     0.000506   -0.000200    0.026797  
 
  30 f/i=    2.673656 THz    16.799079 2PiTHz   89.183575 cm-1    11.057358 meV
             X         Y         Z           dx          dy          dz
      0.000000  0.000000  0.000000    -0.326633    0.233987    0.005241  
      3.944197  3.944197  3.944197    -0.326633    0.233987    0.005241  
      1.972098  1.972098  1.972098    -0.470389    0.336967    0.007548  
      5.916295  5.916295  5.916295    -0.470389    0.336967    0.007548  
      1.972098  1.972098  0.000000     0.021785   -0.015606   -0.000616  
      1.972098  1.972098  3.944197     0.021785   -0.015606   -0.000616  
      1.972098  0.000000  1.972098     0.021785   -0.027482   -0.000350  
      1.972098  3.944197  1.972098     0.021785   -0.027482   -0.000350  
      0.000000  1.972098  1.972098     0.038364   -0.015606   -0.000350  
      3.944197  1.972098  1.972098     0.038364   -0.015606   -0.000350  
 


--------------------------------------------------------------------------------------------------------



 ELASTIC MODULI CONTR FROM IONIC RELAXATION (kBar)
 Direction    XX          YY          ZZ          XY          YZ          ZX
 --------------------------------------------------------------------------------
 XX           0.0000      0.0000      0.0000      0.0000      0.0000      0.0000
 YY           0.0000      0.0000      0.0000      0.0000      0.0000      0.0000
 ZZ           0.0000      0.0000      0.0000      0.0000      0.0000      0.0000
 XY           0.0000      0.0000      0.0000      0.0000      0.0000      0.0000
 YZ           0.0000      0.0000      0.0000      0.0000      0.0000      0.0000
 ZX           0.0000      0.0000      0.0000      0.0000      0.0000      0.0000
 --------------------------------------------------------------------------------


 TOTAL ELASTIC MODULI (kBar)
 Direction    XX          YY          ZZ          XY          YZ          ZX
 --------------------------------------------------------------------------------
 XX        3210.8105   1009.4736   1009.4736      0.0000      0.0000      0.0000
 YY        1009.4736   3210.8105   1009.4736      0.0000      0.0000      0.0000
 ZZ        1009.4736   1009.4736   3210.8105      0.0000      0.0000      0.0000
 XY           0.0000      0.0000      0.0000   1132.8409      0.0000      0.0000
 YZ           0.0000      0.0000      0.0000      0.0000   1132.8409      0.0000
 ZX           0.0000      0.0000      0.0000      0.0000      0.0000   1132.8409
 --------------------------------------------------------------------------------



--------------------------------------------------------------------------------------------------------


  LATTYP: Found a face centered cubic cell.
 ALAT       =     7.8883933660
  
  Lattice vectors:
  
 A1 = (   0.0000000000,   3.9441966830,   3.9441966830)
 A2 = (   3.9441966830,   0.0000000000,   3.9441966830)
 A3 = (   3.9441966830,   3.9441966830,   0.0000000000)
 Subroutine PRICEL returns following result:
 
  LATTYP: Found a simple cubic cell.
 ALAT       =     3.9441966830
  
  Lattice vectors:
  
 A1 = (  -3.9441966830,   0.0000000000,   0.0000000000)
 A2 = (   0.0000000000,   0.0000000000,  -3.9441966830)
 A3 = (   0.0000000000,  -3.9441966830,   0.0000000000)
 
   2 primitive cells build up your supercell.
 

Analysis of symmetry for initial positions (statically):

 Routine SETGRP: Setting up the symmetry group for a 
 face centered cubic supercell.


 Subroutine GETGRP returns: Found 48 space group operations
 (whereof 48 operations were pure point group operations)
 out of a pool of 48 trial point group operations.


The static configuration has the point symmetry O_h .

Analysis of symmetry for dynamics (positions and initial velocities):

 Subroutine DYNSYM returns: Found 48 space group operations
 (whereof 48 operations were pure point group operations)
 out of a pool of 48 trial space group operations
 (whereof 48 operations were pure point group operations)
 and found also     2 'primitive' translations


The dynamic configuration has the point symmetry O_h .
 
 KPOINTS: Automatic                               

Automatic generation of k-mesh.
 
 Subroutine IBZKPT returns following result:
 ===========================================
 
 Found      8 irreducible k-points:
 
 Following reciprocal coordinates:
            Coordinates               Weight
  0.000000  0.000000  0.000000      1.000000
  0.250000  0.000000  0.000000      8.000000
  0.500000  0.000000  0.000000      4.000000
  0.250000  0.250000  0.000000      6.000000
  0.500000  0.250000  0.000000     24.000000
 -0.250000  0.250000  0.000000     12.000000
  0.500000  0.500000  0.000000      3.000000
 -0.250000  0.500000  0.250000      6.000000
 
 Following cartesian coordinates:
            Coordinates               Weight
  0.000000  0.000000  0.000000      1.000000
 -0.031692  0.031692  0.031692      8.000000
 -0.063384  0.063384  0.063384      4.000000
  0.000000  0.000000  0.063384      6.000000
 -0.031692  0.031692  0.095076     24.000000
  0.063384 -0.063384  0.000000     12.000000
  0.000000  0.000000  0.126769      3.000000
  0.126769 -0.063384  0.000000      6.000000
 
 writing wavefunctions
     LOOP+:  cpu time 2134.10: real time 2134.37
    4ORBIT:  cpu time    0.00: real time    0.00
 


 total charge     
 
# of ion     s       p       d       tot
----------------------------------------
  1        1.997   5.791   0.190   7.978
  2        1.997   5.791   0.190   7.978
  3        2.217   6.324   1.687  10.229
  4        2.218   6.325   1.689  10.232
  5        1.559   3.497   0.000   5.055
  6        1.559   3.497   0.000   5.055
  7        1.561   3.466   0.000   5.027
  8        1.561   3.466   0.000   5.027
  9        1.560   3.478   0.000   5.038
 10        1.560   3.478   0.000   5.038
------------------------------------------------
tot       17.788  45.113   3.757  66.658
 

 total amount of memory used by VASP on root node  51990. kBytes
========================================================================

   base      :    30000. kBytes
   nonlr-proj:     8525. kBytes
   fftplans  :     3648. kBytes
   grid      :     8031. kBytes
   one-center:      155. kBytes
   wavefun   :     1631. kBytes
 
  
  
 General timing and accounting informations for this job:
 ========================================================
  
                  Total CPU time used (sec):    67754.586
                            User time (sec):     9158.312
                          System time (sec):    58596.274
                         Elapsed time (sec):    67762.021
  
                   Maximum memory used (kb):           0.
                   Average memory used (kb):           0.
  
                          Minor page faults:     12103945
                          Major page faults:            6
                 Voluntary context switches:         6778
