<?xml version="1.0" encoding="ISO-8859-1"?>
<modeling>
 <generator>
  <i name="program" type="string">vasp </i>
  <i name="version" type="string">5.2.2  </i>
  <i name="subversion" type="string">15Apr09 complex  parallel </i>
  <i name="platform" type="string">LinuxIFC </i>
  <i name="date" type="string">2010 06 08 </i>
  <i name="time" type="string">14:33:01 </i>
 </generator>
 <incar>
  <i type="string" name="SYSTEM"> SrTiO3_221_PBE_i6</i>
  <i type="int" name="ISTART">     0</i>
  <i type="string" name="PREC">high</i>
  <i type="logical" name="ADDGRID"> T  </i>
  <i type="int" name="ICHARG">     0</i>
  <i type="int" name="NELM">   300</i>
  <i type="int" name="IBRION">     6</i>
  <i type="int" name="NFREE">     2</i>
  <i name="EDIFF">      0.00000000</i>
  <i name="EDIFFG">      0.00000100</i>
  <i type="int" name="NSW">    50</i>
  <i type="int" name="ISIF">     3</i>
  <i name="ENCUT">    600.00000000</i>
  <i type="int" name="NBANDS">    64</i>
  <i name="POTIM">      0.00300000</i>
  <i type="string" name="LREAL"> A</i>
  <i type="logical" name="LPLANE"> T  </i>
  <i type="int" name="ISMEAR">     0</i>
  <i name="SIGMA">      0.10000000</i>
  <i type="int" name="LMAXMIX">     4</i>
  <i type="logical" name="LORBIT"> F  </i>
  <i type="int" name="NELM">   300</i>
  <i type="logical" name="LPEAD"> F  </i>
  <i type="logical" name="LCALCPOL"> F  </i>
  <i type="logical" name="LCALCEPS"> F  </i>
  <v name="EFIELD_PEAD">      0.00000000      0.00000000      0.00000000</v>
  <i type="logical" name="LEFG"> F  </i>
 </incar>
 <kpoints>
  <generation param="Gamma">
   <v type="int" name="divisions">       4        4        4 </v>
   <v name="usershift">      0.00000000       0.00000000       0.00000000 </v>
   <v name="genvec1">      0.25000000       0.00000000       0.00000000 </v>
   <v name="genvec2">      0.00000000       0.25000000       0.00000000 </v>
   <v name="genvec3">      0.00000000       0.00000000       0.25000000 </v>
   <v name="shift">      0.00000000       0.00000000       0.00000000 </v>
  </generation>
  <varray name="kpointlist" >
   <v>       0.00000000       0.00000000       0.00000000 </v>
   <v>       0.25000000       0.00000000       0.00000000 </v>
   <v>       0.50000000       0.00000000       0.00000000 </v>
   <v>       0.25000000       0.25000000       0.00000000 </v>
   <v>       0.50000000       0.25000000       0.00000000 </v>
   <v>      -0.25000000       0.25000000       0.00000000 </v>
   <v>       0.50000000       0.50000000       0.00000000 </v>
   <v>      -0.25000000       0.50000000       0.25000000 </v>
  </varray>
  <varray name="weights" >
   <v>       0.01562500 </v>
   <v>       0.12500000 </v>
   <v>       0.06250000 </v>
   <v>       0.09375000 </v>
   <v>       0.37500000 </v>
   <v>       0.18750000 </v>
   <v>       0.04687500 </v>
   <v>       0.09375000 </v>
  </varray>
 </kpoints>
 <parameters>
  <separator name="general" >
   <i type="string" name="SYSTEM">SrTiO3_221_PBE_i6</i>
   <i type="logical" name="LCOMPAT"> F  </i>
  </separator>
  <separator name="electronic" >
   <i type="string" name="PREC">high</i>
   <i name="ENMAX">    600.00000000</i>
   <i name="ENAUG">    605.39200000</i>
   <i name="EDIFF">      0.00000000</i>
   <i type="int" name="IALGO">    38</i>
   <i type="int" name="IWAVPR">    11</i>
   <i type="int" name="NBANDS">    72</i>
   <i name="NELECT">     80.00000000</i>
   <separator name="electronic smearing" >
    <i type="int" name="ISMEAR">     0</i>
    <i name="SIGMA">      0.10000000</i>
   </separator>
   <separator name="electronic projectors" >
    <i type="logical" name="LREAL"> T  </i>
    <v name="ROPT">     -0.00040000     -0.00040000     -0.00040000</v>
    <i type="int" name="LMAXPAW">  -100</i>
    <i type="int" name="LMAXMIX">     4</i>
   </separator>
   <separator name="electronic startup" >
    <i type="int" name="ISTART">     0</i>
    <i type="int" name="ICHARG">     0</i>
    <i type="int" name="INIWAV">     1</i>
   </separator>
   <separator name="electronic spin" >
    <i type="int" name="ISPIN">     1</i>
    <i type="logical" name="LNONCOLLINEAR"> F  </i>
    <v name="MAGMOM">      1.00000000      1.00000000      1.00000000      1.00000000      1.00000000      1.00000000      1.00000000      1.00000000      1.00000000      1.00000000</v>
    <i name="NUPDOWN">     -1.00000000</i>
    <i type="logical" name="LSORBIT"> F  </i>
    <v name="SAXIS">      0.00000000      0.00000000      1.00000000</v>
    <i type="logical" name="LSPIRAL"> F  </i>
    <v name="QSPIRAL">      0.00000000      0.00000000      0.00000000</v>
    <i type="logical" name="LZEROZ"> F  </i>
   </separator>
   <separator name="electronic exchange-correlation" >
    <i type="logical" name="LASPH"> F  </i>
    <i type="logical" name="LMETAGGA"> F  </i>
   </separator>
   <separator name="electronic convergence" >
    <i type="int" name="NELM">   300</i>
    <i type="int" name="NELMDL">    -5</i>
    <i type="int" name="NELMIN">     2</i>
    <i name="ENINI">    600.00000000</i>
    <separator name="electronic convergence detail" >
     <i type="logical" name="LDIAG"> T  </i>
     <i name="WEIMIN">      0.00100000</i>
     <i name="EBREAK">      0.00000000</i>
     <i name="DEPER">      0.30000000</i>
     <i type="int" name="NRMM">     4</i>
     <i name="TIME">      0.40000000</i>
    </separator>
   </separator>
   <separator name="electronic mixer" >
    <i name="AMIX">      0.40000000</i>
    <i name="BMIX">      1.00000000</i>
    <i name="AMIN">      0.10000000</i>
    <i name="AMIX_MAG">      1.60000000</i>
    <i name="BMIX_MAG">      1.00000000</i>
    <separator name="electronic mixer details" >
     <i type="int" name="IMIX">     4</i>
     <i type="int" name="MAXMIX">   -45</i>
     <i name="WC">    100.00000000</i>
     <i type="int" name="INIMIX">     1</i>
     <i type="int" name="MIXPRE">     1</i>
     <i type="int" name="MREMOVE">     5</i>
    </separator>
   </separator>
   <separator name="electronic dipolcorrection" >
    <i type="logical" name="LDIPOL"> F  </i>
    <i type="logical" name="LMONO"> F  </i>
    <i type="int" name="IDIPOL">     0</i>
    <i name="EPSILON">      1.00000000</i>
    <v name="DIPOL">   -100.00000000   -100.00000000   -100.00000000</v>
    <i name="EFIELD">      0.00000000</i>
   </separator>
  </separator>
  <separator name="grids" >
   <i type="int" name="NGX">    48</i>
   <i type="int" name="NGY">    48</i>
   <i type="int" name="NGZ">    48</i>
   <i type="int" name="NGXF">    60</i>
   <i type="int" name="NGYF">    60</i>
   <i type="int" name="NGZF">    60</i>
   <i type="logical" name="ADDGRID"> T  </i>
  </separator>
  <separator name="ionic" >
   <i type="int" name="NSW">   150</i>
   <i type="int" name="IBRION">     6</i>
   <i type="int" name="ISIF">     3</i>
   <i name="PSTRESS">      0.00000000</i>
   <i name="EDIFFG">      0.00000100</i>
   <i type="int" name="NFREE">     2</i>
   <i name="POTIM">      0.00300000</i>
   <i name="SMASS">     -3.00000000</i>
  </separator>
  <separator name="ionic md" >
   <i name="TEBEG">      0.00010000</i>
   <i name="TEEND">      0.00010000</i>
   <i type="int" name="NBLOCK">     1</i>
   <i type="int" name="KBLOCK">    50</i>
   <i type="int" name="NPACO">   256</i>
   <i name="APACO">     16.00000000</i>
  </separator>
  <separator name="symmetry" >
   <i type="int" name="ISYM">     2</i>
   <i name="SYMPREC">      0.00001000</i>
  </separator>
  <separator name="dos" >
   <i type="logical" name="LORBIT"> F  </i>
   <v name="RWIGS">     -1.00000000     -1.00000000     -1.00000000</v>
   <i type="int" name="NEDOS">   301</i>
   <i name="EMIN">     10.00000000</i>
   <i name="EMAX">    -10.00000000</i>
   <i name="EFERMI">      0.00000000</i>
  </separator>
  <separator name="writing" >
   <i type="int" name="NWRITE">     2</i>
   <i type="logical" name="LWAVE"> T  </i>
   <i type="logical" name="LCHARG"> T  </i>
   <i type="logical" name="LPARD"> F  </i>
   <i type="logical" name="LVTOT"> F  </i>
   <i type="logical" name="LELF"> F  </i>
   <i type="logical" name="LOPTICS"> F  </i>
   <v name="STM">      0.00000000      0.00000000      0.00000000      0.00000000      0.00000000</v>
  </separator>
  <separator name="performance" >
   <i type="int" name="NPAR">    24</i>
   <i type="int" name="NSIM">     4</i>
   <i type="int" name="NBLK">    32</i>
   <i type="logical" name="LPLANE"> T  </i>
   <i type="logical" name="LSCALAPACK"> F  </i>
   <i type="logical" name="LSCAAWARE"> F  </i>
   <i type="logical" name="LSCALU"> F  </i>
   <i type="logical" name="LASYNC"> F  </i>
  </separator>
  <separator name="miscellaneous" >
   <i type="int" name="IDIOT">     3</i>
   <i type="logical" name="LMUSIC"> F  </i>
   <v name="POMASS">     87.62000000     47.88000000     16.00000000</v>
   <i type="logical" name="LCORR"> T  </i>
  </separator>
  <i type="logical" name="LREAL_COMPAT"> F  </i>
  <i type="logical" name="GGA_COMPAT"> T  </i>
  <i type="logical" name="LBERRY"> F  </i>
  <i type="int" name="ICORELEVEL">     0</i>
  <i type="logical" name="LDAU"> F  </i>
  <i type="int" name="I_CONSTRAINED_M">     0</i>
  <separator name="electronic exchange-correlation" >
   <i type="string" name="GGA">--</i>
   <i type="int" name="VOSKOWN">     0</i>
   <i type="logical" name="LHFCALC"> F  </i>
   <i type="logical" name="LHFONE"> F  </i>
   <i type="logical" name="LRHFCALC"> F  </i>
   <i type="logical" name="LTHOMAS"> F  </i>
   <i type="logical" name="LMODELHF"> F  </i>
   <i name="ENCUTFOCK">      0.00000000</i>
   <i name="ENCUT4O">     -1.00000000</i>
   <i type="int" name="EXXOEP">     0</i>
   <i type="int" name="FOURORBIT">     0</i>
   <i name="AEXX">      0.00000000</i>
   <i name="HFALPHA">      0.00000000</i>
   <i name="ALDAX">      1.00000000</i>
   <i name="AGGAX">      1.00000000</i>
   <i name="ALDAC">      1.00000000</i>
   <i name="AGGAC">      1.00000000</i>
   <i type="int" name="NKREDX">     1</i>
   <i type="int" name="NKREDY">     1</i>
   <i type="int" name="NKREDZ">     1</i>
   <i type="logical" name="SHIFTRED"> F  </i>
   <i type="logical" name="ODDONLY"> F  </i>
   <i type="logical" name="EVENONLY"> F  </i>
   <i type="int" name="LMAXFOCK">     0</i>
   <i type="int" name="NMAXFOCKAE">     0</i>
   <i name="HFSCREEN">      0.00000000</i>
   <i name="HFSCREENC">      0.00000000</i>
  </separator>
  <separator name="model GW" >
   <i type="int" name="MODEL_GW">     0</i>
   <i name="MODEL_EPS0">      7.36303622</i>
   <i name="MODEL_ALPHA">      1.00000000</i>
  </separator>
  <separator name="linear response parameters" >
   <i type="logical" name="LEPSILON"> F  </i>
   <i type="logical" name="LRPA"> F  </i>
   <i type="logical" name="LNABLA"> F  </i>
   <i type="logical" name="LVEL"> F  </i>
   <i type="int" name="KINTER">     0</i>
   <i name="CSHIFT">      0.10000000</i>
   <i name="OMEGAMAX">     -1.00000000</i>
  </separator>
  <separator name="orbital magnetization" >
   <i type="logical" name="ORBITALMAG"> F  </i>
   <i type="logical" name="LMAGBLOCH"> F  </i>
   <i type="logical" name="LCHIMAG"> F  </i>
   <i type="logical" name="LGAUGE"> T  </i>
   <i type="int" name="MAGATOM">     0</i>
   <v name="MAGDIPOL">      0.00000000      0.00000000      0.00000000</v>
   <v name="AVECCONST">      0.00000000      0.00000000      0.00000000</v>
  </separator>
  <separator name="response functions" >
   <i type="logical" name="LRPA"> T  </i>
   <i type="logical" name="LTCTE"> F  </i>
   <i type="logical" name="LTETE"> F  </i>
   <i type="logical" name="L2ORDER"> F  </i>
   <i type="logical" name="LGWLF"> F  </i>
   <i name="ENCUTGW">    400.00000000</i>
   <i name="ENCUTGWSOFT">     -2.00000000</i>
   <i name="ENCUTLF">     -1.00000000</i>
   <i type="int" name="LMAXMP2">    -1</i>
   <i name="SCISSOR">      0.00000000</i>
   <i type="int" name="NOMEGA">     0</i>
   <i type="int" name="NOMEGAR">     0</i>
   <i type="int" name="NBANDSGW">    -1</i>
   <i type="int" name="NBANDSLF">    -1</i>
   <i type="int" name="NELM">   300</i>
   <i type="int" name="DIM">     3</i>
   <i type="int" name="ANTIRES">     0</i>
   <i type="logical" name="LUSEW"> F  </i>
   <i name="OMEGAMAX">    -30.00000000</i>
   <i name="OMEGATL">   -200.00000000</i>
   <i type="int" name="OMEGAGRID">     0</i>
   <i name="CSHIFT">     -0.10000000</i>
   <i type="logical" name="SELFENERGY"> F  </i>
   <i type="logical" name="LSPECTRAL"> F  </i>
   <i type="logical" name="ODDONLYGW"> F  </i>
   <i type="logical" name="EVENONLYGW"> F  </i>
   <i type="int" name="NKREDLFX">     1</i>
   <i type="int" name="NKREDLFY">     1</i>
   <i type="int" name="NKREDLFZ">     1</i>
   <i type="int" name="MAXMEM">  1024</i>
   <i type="int" name="TELESCOPE">     0</i>
  </separator>
 </parameters>
 <atominfo>
  <atoms>      10 </atoms>
  <types>       3 </types>
  <array name="atoms" >
   <dimension dim="1">ion</dimension>
   <field type="string">element</field>
   <field type="int">atomtype</field>
   <set>
    <rc><c>Sr</c><c>   1</c></rc>
    <rc><c>Sr</c><c>   1</c></rc>
    <rc><c>Ti</c><c>   2</c></rc>
    <rc><c>Ti</c><c>   2</c></rc>
    <rc><c>O </c><c>   3</c></rc>
    <rc><c>O </c><c>   3</c></rc>
    <rc><c>O </c><c>   3</c></rc>
    <rc><c>O </c><c>   3</c></rc>
    <rc><c>O </c><c>   3</c></rc>
    <rc><c>O </c><c>   3</c></rc>
   </set>
  </array>
  <array name="atomtypes" >
   <dimension dim="1">type</dimension>
   <field type="int">atomspertype</field>
   <field type="string">element</field>
   <field>mass</field>
   <field>valence</field>
   <field type="string">pseudopotential</field>
   <set>
    <rc><c>   2</c><c>Sr</c><c>     87.62000000</c><c>     10.00000000</c><c> PAW_PBE Sr_sv 07Sep2000                </c></rc>
    <rc><c>   2</c><c>Ti</c><c>     47.88000000</c><c>     12.00000000</c><c> PAW_PBE Ti_sv 07Sep2000                </c></rc>
    <rc><c>   6</c><c>O </c><c>     16.00000000</c><c>      6.00000000</c><c> PAW_PBE O 08Apr2002                    </c></rc>
   </set>
  </array>
 </atominfo>
 <structure name="initialpos" >
  <crystal>
   <varray name="basis" >
    <v>       0.00000000       3.94419668       3.94419668 </v>
    <v>       3.94419668       0.00000000       3.94419668 </v>
    <v>       3.94419668       3.94419668       0.00000000 </v>
   </varray>
   <i name="volume">    122.71727027 </i>
   <varray name="rec_basis" >
    <v>      -0.12676853       0.12676853       0.12676853 </v>
    <v>       0.12676853      -0.12676853       0.12676853 </v>
    <v>       0.12676853       0.12676853      -0.12676853 </v>
   </varray>
  </crystal>
  <varray name="positions" >
   <v>       0.00000000       0.00000000       0.00000000 </v>
   <v>       0.50000000       0.50000000       0.50000000 </v>
   <v>       0.25000000       0.25000000       0.25000000 </v>
   <v>       0.75000000       0.75000000       0.75000000 </v>
   <v>       0.00000000       0.00000000       0.50000000 </v>
   <v>       0.50000000       0.50000000       0.00000000 </v>
   <v>       0.00000000       0.50000000       0.00000000 </v>
   <v>       0.50000000       0.00000000       0.50000000 </v>
   <v>       0.50000000       0.00000000       0.00000000 </v>
   <v>       0.00000000       0.50000000       0.50000000 </v>
  </varray>
 </structure>
 <calculation>
  <scstep>
   <time name="dav">   84.95   84.95</time>
   <time name="total">   88.93   88.93</time>
   <energy>
    <i name="alphaZ">    502.70847669 </i>
    <i name="ewald">  -5725.19466925 </i>
    <i name="hartreedc">    -96.28621696 </i>
    <i name="XCdc">    271.39507225 </i>
    <i name="pawpsdc">   1252.08969465 </i>
    <i name="pawaedc">  -1256.93138471 </i>
    <i name="eentropy">     -0.00047665 </i>
    <i name="bandstr">  -3938.41701973 </i>
    <i name="atom">   7454.08711683 </i>
    <i name="e_fr_energy">  -1536.54940688 </i>
    <i name="e_wo_entrp">  -1536.54893023 </i>
    <i name="e_0_energy">  -1536.54916856 </i>
   </energy>
  </scstep>
  <scstep>
   <time name="dav">   88.73   88.73</time>
   <time name="total">   88.82   88.83</time>
   <energy>
    <i name="e_fr_energy">  -2645.94151062 </i>
    <i name="e_wo_entrp">  -2645.91593229 </i>
    <i name="e_0_energy">  -2645.92872146 </i>
   </energy>
  </scstep>
  <scstep>
   <time name="dav">  137.75  137.74</time>
   <time name="total">  137.81  137.80</time>
   <energy>
    <i name="e_fr_energy">  -2775.49714219 </i>
    <i name="e_wo_entrp">  -2774.98175447 </i>
    <i name="e_0_energy">  -2775.23944833 </i>
   </energy>
  </scstep>
  <scstep>
   <time name="dav">   92.01   92.01</time>
   <time name="total">   92.07   92.06</time>
   <energy>
    <i name="e_fr_energy">  -2805.91287337 </i>
    <i name="e_wo_entrp">  -2805.35151471 </i>
    <i name="e_0_energy">  -2805.63219404 </i>
   </energy>
  </scstep>
  <scstep>
   <time name="dav">  115.07  115.06</time>
   <time name="total">  124.08  124.13</time>
   <energy>
    <i name="e_fr_energy">  -2806.23488854 </i>
    <i name="e_wo_entrp">  -2805.67345675 </i>
    <i name="e_0_energy">  -2805.95417265 </i>
   </energy>
  </scstep>
  <scstep>
   <time name="dav">  107.37  107.37</time>
   <time name="total">  119.98  120.03</time>
   <energy>
    <i name="e_fr_energy">   -483.29678682 </i>
    <i name="e_wo_entrp">   -483.29678682 </i>
    <i name="e_0_energy">   -483.29678682 </i>
   </energy>
  </scstep>
  <scstep>
   <time name="dav">  111.37  111.38</time>
   <time name="total">  124.68  124.70</time>
   <energy>
    <i name="e_fr_energy">   -155.88962597 </i>
    <i name="e_wo_entrp">   -155.88962597 </i>
    <i name="e_0_energy">   -155.88962597 </i>
   </energy>
  </scstep>
  <scstep>
   <time name="dav">  113.99  113.98</time>
   <time name="total">  126.65  126.65</time>
   <energy>
    <i name="e_fr_energy">    -98.02544695 </i>
    <i name="e_wo_entrp">    -98.00603799 </i>
    <i name="e_0_energy">    -98.01574247 </i>
   </energy>
  </scstep>
  <scstep>
   <time name="dav">  109.20  109.19</time>
   <time name="total">  122.50  122.50</time>
   <energy>
    <i name="e_fr_energy">   -105.18138181 </i>
    <i name="e_wo_entrp">   -105.18138181 </i>
    <i name="e_0_energy">   -105.18138181 </i>
   </energy>
  </scstep>
  <scstep>
   <time name="dav">  106.87  106.87</time>
   <time name="total">  119.76  119.77</time>
   <energy>
    <i name="e_fr_energy">    -84.30793032 </i>
    <i name="e_wo_entrp">    -84.30793032 </i>
    <i name="e_0_energy">    -84.30793032 </i>
   </energy>
  </scstep>
  <scstep>
   <time name="dav">  111.26  111.25</time>
   <time name="total">  124.33  124.33</time>
   <energy>
    <i name="e_fr_energy">    -80.68556127 </i>
    <i name="e_wo_entrp">    -80.68556127 </i>
    <i name="e_0_energy">    -80.68556127 </i>
   </energy>
  </scstep>
  <scstep>
   <time name="dav">  108.11  108.11</time>
   <time name="total">  121.09  121.09</time>
   <energy>
    <i name="e_fr_energy">    -80.89303366 </i>
    <i name="e_wo_entrp">    -80.89303366 </i>
    <i name="e_0_energy">    -80.89303366 </i>
   </energy>
  </scstep>
  <scstep>
   <time name="dav">  111.27  111.27</time>
   <time name="total">  124.62  124.67</time>
   <energy>
    <i name="e_fr_energy">    -80.68058481 </i>
    <i name="e_wo_entrp">    -80.68058481 </i>
    <i name="e_0_energy">    -80.68058481 </i>
   </energy>
  </scstep>
  <scstep>
   <time name="dav">  108.39  108.39</time>
   <time name="total">  121.60  121.60</time>
   <energy>
    <i name="e_fr_energy">    -80.61616475 </i>
    <i name="e_wo_entrp">    -80.61616475 </i>
    <i name="e_0_energy">    -80.61616475 </i>
   </energy>
  </scstep>
  <scstep>
   <time name="dav">  110.53  110.52</time>
   <time name="total">  123.43  123.45</time>
   <energy>
    <i name="e_fr_energy">    -80.42129580 </i>
    <i name="e_wo_entrp">    -80.42129580 </i>
    <i name="e_0_energy">    -80.42129580 </i>
   </energy>
  </scstep>
  <scstep>
   <time name="dav">  113.77  113.76</time>
   <time name="total">  126.36  126.35</time>
   <energy>
    <i name="e_fr_energy">    -80.41623645 </i>
    <i name="e_wo_entrp">    -80.41623645 </i>
    <i name="e_0_energy">    -80.41623645 </i>
   </energy>
  </scstep>
  <scstep>
   <time name="dav">  115.02  115.01</time>
   <time name="total">  127.88  127.87</time>
   <energy>
    <i name="e_fr_energy">    -80.41573486 </i>
    <i name="e_wo_entrp">    -80.41573486 </i>
    <i name="e_0_energy">    -80.41573486 </i>
   </energy>
  </scstep>
  <scstep>
   <time name="dav">  107.88  107.87</time>
   <time name="total">  120.40  120.40</time>
   <energy>
    <i name="e_fr_energy">    -80.41562420 </i>
    <i name="e_wo_entrp">    -80.41562420 </i>
    <i name="e_0_energy">    -80.41562420 </i>
   </energy>
  </scstep>
  <scstep>
   <time name="dav">  112.15  112.14</time>
   <time name="total">  124.89  124.89</time>
   <energy>
    <i name="e_fr_energy">    -80.41530249 </i>
    <i name="e_wo_entrp">    -80.41530249 </i>
    <i name="e_0_energy">    -80.41530249 </i>
   </energy>
  </scstep>
  <scstep>
   <time name="dav">  111.43  111.43</time>
   <time name="total">  124.86  124.86</time>
   <energy>
    <i name="e_fr_energy">    -80.41529456 </i>
    <i name="e_wo_entrp">    -80.41529456 </i>
    <i name="e_0_energy">    -80.41529456 </i>
   </energy>
  </scstep>
  <scstep>
   <time name="dav">  119.36  119.35</time>
   <time name="total">  131.30  131.30</time>
   <energy>
    <i name="e_fr_energy">    -80.41529443 </i>
    <i name="e_wo_entrp">    -80.41529443 </i>
    <i name="e_0_energy">    -80.41529443 </i>
   </energy>
  </scstep>
  <scstep>
   <time name="dav">  117.66  117.66</time>
   <time name="total">  130.44  130.44</time>
   <energy>
    <i name="e_fr_energy">    -80.41529201 </i>
    <i name="e_wo_entrp">    -80.41529201 </i>
    <i name="e_0_energy">    -80.41529201 </i>
   </energy>
  </scstep>
  <scstep>
   <time name="dav">  108.12  108.11</time>
   <time name="total">  121.77  121.77</time>
   <energy>
    <i name="e_fr_energy">    -80.41529166 </i>
    <i name="e_wo_entrp">    -80.41529166 </i>
    <i name="e_0_energy">    -80.41529166 </i>
   </energy>
  </scstep>
  <scstep>
   <time name="dav">  105.44  105.44</time>
   <time name="total">  118.76  118.76</time>
   <energy>
    <i name="e_fr_energy">    -80.41529174 </i>
    <i name="e_wo_entrp">    -80.41529174 </i>
    <i name="e_0_energy">    -80.41529174 </i>
   </energy>
  </scstep>
  <scstep>
   <time name="dav">  127.37  127.36</time>
   <time name="total">  139.68  139.69</time>
   <energy>
    <i name="e_fr_energy">    -80.41529176 </i>
    <i name="e_wo_entrp">    -80.41529176 </i>
    <i name="e_0_energy">    -80.41529176 </i>
   </energy>
  </scstep>
  <scstep>
   <time name="dav">  114.08  114.07</time>
   <time name="total">  126.52  126.53</time>
   <energy>
    <i name="e_fr_energy">    -80.41529176 </i>
    <i name="e_wo_entrp">    -80.41529176 </i>
    <i name="e_0_energy">    -80.41529176 </i>
   </energy>
  </scstep>
  <scstep>
   <time name="dav">   92.84   92.83</time>
   <time name="total">  105.20  105.21</time>
   <energy>
    <i name="e_fr_energy">    -80.41529177 </i>
    <i name="e_wo_entrp">    -80.41529177 </i>
    <i name="e_0_energy">    -80.41529177 </i>
   </energy>
  </scstep>
  <scstep>
   <time name="dav">   79.21   79.21</time>
   <time name="total">   92.07   92.07</time>
   <energy>
    <i name="e_fr_energy">    -80.41529177 </i>
    <i name="e_wo_entrp">    -80.41529177 </i>
    <i name="e_0_energy">    -80.41529177 </i>
   </energy>
  </scstep>
  <scstep>
   <time name="dav">   70.23   70.23</time>
   <time name="total">   82.77   82.79</time>
   <energy>
    <i name="e_fr_energy">    -80.41529177 </i>
    <i name="e_wo_entrp">    -80.41529177 </i>
    <i name="e_0_energy">    -80.41529177 </i>
   </energy>
  </scstep>
  <scstep>
   <time name="dav">   65.86   65.85</time>
   <time name="total">   69.99   69.99</time>
   <energy>
    <i name="alphaZ">    502.70847669 </i>
    <i name="ewald">  -5725.19466925 </i>
    <i name="hartreedc">  -1771.76383633 </i>
    <i name="XCdc">    365.49488059 </i>
    <i name="pawpsdc">   4989.17135366 </i>
    <i name="pawaedc">  -4938.92261043 </i>
    <i name="eentropy">      0.00000000 </i>
    <i name="bandstr">   -955.99600353 </i>
    <i name="atom">   7454.08711683 </i>
    <i name="e_fr_energy">    -80.41529177 </i>
    <i name="e_wo_entrp">    -80.41529177 </i>
    <i name="e_0_energy">    -80.41529177 </i>
   </energy>
  </scstep>
  <structure>
   <crystal>
    <varray name="basis" >
     <v>       0.00000000       3.94419668       3.94419668 </v>
     <v>       3.94419668       0.00000000       3.94419668 </v>
     <v>       3.94419668       3.94419668       0.00000000 </v>
    </varray>
    <i name="volume">    122.71727027 </i>
    <varray name="rec_basis" >
     <v>      -0.12676853       0.12676853       0.12676853 </v>
     <v>       0.12676853      -0.12676853       0.12676853 </v>
     <v>       0.12676853       0.12676853      -0.12676853 </v>
    </varray>
   </crystal>
   <varray name="positions" >
    <v>       0.00000000       0.00000000       0.00000000 </v>
    <v>       0.50000000       0.50000000       0.50000000 </v>
    <v>       0.25000000       0.25000000       0.25000000 </v>
    <v>       0.75000000       0.75000000       0.75000000 </v>
    <v>       0.00000000       0.00000000       0.50000000 </v>
    <v>       0.50000000       0.50000000       0.00000000 </v>
    <v>       0.00000000       0.50000000       0.00000000 </v>
    <v>       0.50000000       0.00000000       0.50000000 </v>
    <v>       0.50000000       0.00000000       0.00000000 </v>
    <v>       0.00000000       0.50000000       0.50000000 </v>
   </varray>
  </structure>
  <varray name="forces" >
   <v>       0.00000000       0.00000000       0.00000000 </v>
   <v>       0.00000000       0.00000000       0.00000000 </v>
   <v>       0.00000000       0.00000000       0.00000000 </v>
   <v>       0.00000000       0.00000000       0.00000000 </v>
   <v>       0.00000000       0.00000000       0.00000000 </v>
   <v>       0.00000000       0.00000000       0.00000000 </v>
   <v>       0.00000000       0.00000000       0.00000000 </v>
   <v>       0.00000000       0.00000000       0.00000000 </v>
   <v>       0.00000000       0.00000000       0.00000000 </v>
   <v>       0.00000000       0.00000000       0.00000000 </v>
  </varray>
  <varray name="stress" >
   <v>      -1.43751080       0.00000000       0.00000000 </v>
   <v>       0.00000000      -1.43751080       0.00000000 </v>
   <v>       0.00000000       0.00000000      -1.43751080 </v>
  </varray>
  <energy>
   <i name="e_fr_energy">    -80.41529177 </i>
   <i name="e_wo_entrp">    -80.41529177 </i>
   <i name="e_0_energy">      0.00000000 </i>
  </energy>
  <kpoints>
   <generation param="Gamma">
    <v type="int" name="divisions">       4        4        4 </v>
    <v name="usershift">      0.00000000       0.00000000       0.00000000 </v>
    <v name="genvec1">      0.25000000       0.00000000       0.00000000 </v>
    <v name="genvec2">      0.00000000       0.25000000       0.00000000 </v>
    <v name="genvec3">      0.00000000       0.00000000       0.25000000 </v>
    <v name="shift">      0.00000000       0.00000000       0.00000000 </v>
   </generation>
   <varray name="kpointlist" >
    <v>       0.00000000       0.00000000       0.00000000 </v>
    <v>       0.25000000       0.00000000       0.00000000 </v>
    <v>       0.50000000       0.00000000       0.00000000 </v>
    <v>       0.25000000       0.25000000       0.00000000 </v>
    <v>       0.50000000       0.25000000       0.00000000 </v>
    <v>      -0.25000000       0.25000000       0.00000000 </v>
    <v>       0.50000000       0.50000000       0.00000000 </v>
    <v>       0.00000000       0.25000000       0.25000000 </v>
    <v>       0.50000000       0.25000000       0.25000000 </v>
    <v>      -0.25000000       0.25000000       0.25000000 </v>
    <v>      -0.25000000       0.50000000       0.25000000 </v>
    <v>       0.50000000      -0.25000000       0.25000000 </v>
    <v>       0.00000000       0.50000000       0.50000000 </v>
   </varray>
   <varray name="weights" >
    <v>       0.01562500 </v>
    <v>       0.12500000 </v>
    <v>       0.06250000 </v>
    <v>       0.06250000 </v>
    <v>       0.25000000 </v>
    <v>       0.12500000 </v>
    <v>       0.03125000 </v>
    <v>       0.03125000 </v>
    <v>       0.06250000 </v>
    <v>       0.12500000 </v>
    <v>       0.06250000 </v>
    <v>       0.03125000 </v>
    <v>       0.01562500 </v>
   </varray>
  </kpoints>
  <time name="totalsc"> 3567.39 3567.66</time>
 </calculation>
 <calculation>
  <scstep>
   <time name="dav">  174.01  174.00</time>
   <time name="total">  187.40  187.39</time>
   <energy>
    <i name="alphaZ">    501.20486210 </i>
    <i name="ewald">  -5719.46951687 </i>
    <i name="hartreedc">  -1769.99717996 </i>
    <i name="XCdc">    365.14722319 </i>
    <i name="pawpsdc">   4989.17133656 </i>
    <i name="pawaedc">  -4938.92259399 </i>
    <i name="eentropy">      0.00000000 </i>
    <i name="bandstr">   -961.64235627 </i>
    <i name="atom">   7454.08711683 </i>
    <i name="e_fr_energy">    -80.42110841 </i>
    <i name="e_wo_entrp">    -80.42110841 </i>
    <i name="e_0_energy">    -80.42110841 </i>
   </energy>
  </scstep>
  <scstep>
   <time name="dav">  169.84  169.83</time>
   <time name="total">  182.10  182.10</time>
   <energy>
    <i name="e_fr_energy">    -80.41538407 </i>
    <i name="e_wo_entrp">    -80.41538407 </i>
    <i name="e_0_energy">    -80.41538407 </i>
   </energy>
  </scstep>
  <scstep>
   <time name="dav">  197.64  197.63</time>
   <time name="total">  210.33  210.32</time>
   <energy>
    <i name="e_fr_energy">    -80.41394092 </i>
    <i name="e_wo_entrp">    -80.41394092 </i>
    <i name="e_0_energy">    -80.41394092 </i>
   </energy>
  </scstep>
  <scstep>
   <time name="dav">  194.44  194.44</time>
   <time name="total">  207.22  207.23</time>
   <energy>
    <i name="e_fr_energy">    -80.41385085 </i>
    <i name="e_wo_entrp">    -80.41385085 </i>
    <i name="e_0_energy">    -80.41385085 </i>
   </energy>
  </scstep>
  <scstep>
   <time name="dav">  206.27  206.26</time>
   <time name="total">  219.63  219.63</time>
   <energy>
    <i name="e_fr_energy">    -80.41385210 </i>
    <i name="e_wo_entrp">    -80.41385210 </i>
    <i name="e_0_energy">    -80.41385210 </i>
   </energy>
  </scstep>
  <scstep>
   <time name="dav">  209.70  209.68</time>
   <time name="total">  222.94  222.93</time>
   <energy>
    <i name="e_fr_energy">    -80.41386316 </i>
    <i name="e_wo_entrp">    -80.41386316 </i>
    <i name="e_0_energy">    -80.41386316 </i>
   </energy>
  </scstep>
  <scstep>
   <time name="dav">  198.36  198.35</time>
   <time name="total">  211.13  211.13</time>
   <energy>
    <i name="e_fr_energy">    -80.41386336 </i>
    <i name="e_wo_entrp">    -80.41386336 </i>
    <i name="e_0_energy">    -80.41386336 </i>
   </energy>
  </scstep>
  <scstep>
   <time name="dav">  149.40  149.39</time>
   <time name="total">  161.95  161.95</time>
   <energy>
    <i name="e_fr_energy">    -80.41386209 </i>
    <i name="e_wo_entrp">    -80.41386209 </i>
    <i name="e_0_energy">    -80.41386209 </i>
   </energy>
  </scstep>
  <scstep>
   <time name="dav">  163.54  163.54</time>
   <time name="total">  177.13  177.13</time>
   <energy>
    <i name="e_fr_energy">    -80.41386241 </i>
    <i name="e_wo_entrp">    -80.41386241 </i>
    <i name="e_0_energy">    -80.41386241 </i>
   </energy>
  </scstep>
  <scstep>
   <time name="dav">  175.05  175.04</time>
   <time name="total">  187.74  187.74</time>
   <energy>
    <i name="e_fr_energy">    -80.41386238 </i>
    <i name="e_wo_entrp">    -80.41386238 </i>
    <i name="e_0_energy">    -80.41386238 </i>
   </energy>
  </scstep>
  <scstep>
   <time name="dav">  193.02  193.01</time>
   <time name="total">  206.58  206.57</time>
   <energy>
    <i name="e_fr_energy">    -80.41386238 </i>
    <i name="e_wo_entrp">    -80.41386238 </i>
    <i name="e_0_energy">    -80.41386238 </i>
   </energy>
  </scstep>
  <scstep>
   <time name="dav">  122.17  122.16</time>
   <time name="total">  135.02  135.03</time>
   <energy>
    <i name="e_fr_energy">    -80.41386239 </i>
    <i name="e_wo_entrp">    -80.41386239 </i>
    <i name="e_0_energy">    -80.41386239 </i>
   </energy>
  </scstep>
  <scstep>
   <time name="dav">  122.70  122.70</time>
   <time name="total">  135.63  135.62</time>
   <energy>
    <i name="e_fr_energy">    -80.41386239 </i>
    <i name="e_wo_entrp">    -80.41386239 </i>
    <i name="e_0_energy">    -80.41386239 </i>
   </energy>
  </scstep>
  <scstep>
   <time name="dav">  116.52  116.51</time>
   <time name="total">  129.72  129.74</time>
   <energy>
    <i name="e_fr_energy">    -80.41386239 </i>
    <i name="e_wo_entrp">    -80.41386239 </i>
    <i name="e_0_energy">    -80.41386239 </i>
   </energy>
  </scstep>
  <scstep>
   <time name="dav">  113.48  113.47</time>
   <time name="total">  126.60  126.60</time>
   <energy>
    <i name="e_fr_energy">    -80.41386239 </i>
    <i name="e_wo_entrp">    -80.41386239 </i>
    <i name="e_0_energy">    -80.41386239 </i>
   </energy>
  </scstep>
  <scstep>
   <time name="dav">  106.91  106.91</time>
   <time name="total">  111.27  111.27</time>
   <energy>
    <i name="alphaZ">    501.20486210 </i>
    <i name="ewald">  -5719.46951687 </i>
    <i name="hartreedc">  -1774.01410422 </i>
    <i name="XCdc">    365.39911230 </i>
    <i name="pawpsdc">   4985.73002845 </i>
    <i name="pawaedc">  -4935.59445164 </i>
    <i name="eentropy">      0.00000000 </i>
    <i name="bandstr">   -957.75690933 </i>
    <i name="atom">   7454.08711683 </i>
    <i name="e_fr_energy">    -80.41386239 </i>
    <i name="e_wo_entrp">    -80.41386239 </i>
    <i name="e_0_energy">    -80.41386239 </i>
   </energy>
  </scstep>
  <structure>
   <crystal>
    <varray name="basis" >
     <v>       0.00000000       3.94419668       3.94419668 </v>
     <v>       3.95602927       0.00000000       3.94419668 </v>
     <v>       3.95602927       3.94419668       0.00000000 </v>
    </varray>
    <i name="volume">    123.08542208 </i>
    <varray name="rec_basis" >
     <v>      -0.12638936       0.12676853       0.12676853 </v>
     <v>       0.12638936      -0.12676853       0.12676853 </v>
     <v>       0.12638936       0.12676853      -0.12676853 </v>
    </varray>
   </crystal>
   <varray name="positions" >
    <v>       0.00000000       0.00000000       0.00000000 </v>
    <v>       0.50000000       0.50000000       0.50000000 </v>
    <v>       0.25000000       0.25000000       0.25000000 </v>
    <v>       0.75000000       0.75000000       0.75000000 </v>
    <v>       0.00000000       0.00000000       0.50000000 </v>
    <v>       0.50000000       0.50000000       0.00000000 </v>
    <v>       0.00000000       0.50000000       0.00000000 </v>
    <v>       0.50000000       0.00000000       0.50000000 </v>
    <v>       0.50000000       0.00000000       0.00000000 </v>
    <v>       0.00000000       0.50000000       0.50000000 </v>
   </varray>
  </structure>
  <varray name="forces" >
   <v>       0.00000000       0.00000000       0.00000000 </v>
   <v>       0.00000000       0.00000000       0.00000000 </v>
   <v>       0.00000000       0.00000000       0.00000000 </v>
   <v>       0.00000000       0.00000000       0.00000000 </v>
   <v>       0.00000000       0.00000000       0.00000000 </v>
   <v>       0.00000000       0.00000000       0.00000000 </v>
   <v>       0.00000000       0.00000000       0.00000000 </v>
   <v>       0.00000000       0.00000000       0.00000000 </v>
   <v>       0.00000000       0.00000000       0.00000000 </v>
   <v>       0.00000000       0.00000000       0.00000000 </v>
  </varray>
  <varray name="stress" >
   <v>     -10.97372260       0.00000000       0.00000000 </v>
   <v>       0.00000000      -4.45096722       0.00000000 </v>
   <v>       0.00000000       0.00000000      -4.45096722 </v>
  </varray>
  <energy>
   <i name="e_fr_energy">    -80.41386239 </i>
   <i name="e_wo_entrp">    -80.41386239 </i>
   <i name="e_0_energy">      0.00000000 </i>
  </energy>
  <kpoints>
   <generation param="Gamma">
    <v type="int" name="divisions">       4        4        4 </v>
    <v name="usershift">      0.00000000       0.00000000       0.00000000 </v>
    <v name="genvec1">      0.25000000       0.00000000       0.00000000 </v>
    <v name="genvec2">      0.00000000       0.25000000       0.00000000 </v>
    <v name="genvec3">      0.00000000       0.00000000       0.25000000 </v>
    <v name="shift">      0.00000000       0.00000000       0.00000000 </v>
   </generation>
   <varray name="kpointlist" >
    <v>       0.00000000       0.00000000       0.00000000 </v>
    <v>       0.25000000       0.00000000       0.00000000 </v>
    <v>       0.50000000       0.00000000       0.00000000 </v>
    <v>       0.25000000       0.25000000       0.00000000 </v>
    <v>       0.50000000       0.25000000       0.00000000 </v>
    <v>      -0.25000000       0.25000000       0.00000000 </v>
    <v>       0.50000000       0.50000000       0.00000000 </v>
    <v>       0.00000000       0.25000000       0.25000000 </v>
    <v>       0.50000000       0.25000000       0.25000000 </v>
    <v>      -0.25000000       0.25000000       0.25000000 </v>
    <v>      -0.25000000       0.50000000       0.25000000 </v>
    <v>       0.50000000      -0.25000000       0.25000000 </v>
    <v>       0.00000000       0.50000000       0.50000000 </v>
   </varray>
   <varray name="weights" >
    <v>       0.01562500 </v>
    <v>       0.12500000 </v>
    <v>       0.06250000 </v>
    <v>       0.06250000 </v>
    <v>       0.25000000 </v>
    <v>       0.12500000 </v>
    <v>       0.03125000 </v>
    <v>       0.03125000 </v>
    <v>       0.06250000 </v>
    <v>       0.12500000 </v>
    <v>       0.06250000 </v>
    <v>       0.03125000 </v>
    <v>       0.01562500 </v>
   </varray>
  </kpoints>
  <time name="totalsc"> 2879.11 2879.11</time>
 </calculation>
 <calculation>
  <scstep>
   <time name="dav">  174.35  174.35</time>
   <time name="total">  187.70  187.69</time>
   <energy>
    <i name="alphaZ">    504.22114011 </i>
    <i name="ewald">  -5730.91987010 </i>
    <i name="hartreedc">  -1777.54684819 </i>
    <i name="XCdc">    366.09614197 </i>
    <i name="pawpsdc">   4985.73002996 </i>
    <i name="pawaedc">  -4935.59445175 </i>
    <i name="eentropy">      0.00000000 </i>
    <i name="bandstr">   -946.51751132 </i>
    <i name="atom">   7454.08711683 </i>
    <i name="e_fr_energy">    -80.44425249 </i>
    <i name="e_wo_entrp">    -80.44425249 </i>
    <i name="e_0_energy">    -80.44425249 </i>
   </energy>
  </scstep>
  <scstep>
   <time name="dav">  179.20  179.19</time>
   <time name="total">  191.22  191.22</time>
   <energy>
    <i name="e_fr_energy">    -80.42029837 </i>
    <i name="e_wo_entrp">    -80.42029837 </i>
    <i name="e_0_energy">    -80.42029837 </i>
   </energy>
  </scstep>
  <scstep>
   <time name="dav">  193.04  193.03</time>
   <time name="total">  206.25  206.24</time>
   <energy>
    <i name="e_fr_energy">    -80.41464202 </i>
    <i name="e_wo_entrp">    -80.41464202 </i>
    <i name="e_0_energy">    -80.41464202 </i>
   </energy>
  </scstep>
  <scstep>
   <time name="dav">  207.52  207.51</time>
   <time name="total">  221.09  221.09</time>
   <energy>
    <i name="e_fr_energy">    -80.41437707 </i>
    <i name="e_wo_entrp">    -80.41437707 </i>
    <i name="e_0_energy">    -80.41437707 </i>
   </energy>
  </scstep>
  <scstep>
   <time name="dav">  187.80  187.79</time>
   <time name="total">  200.76  200.77</time>
   <energy>
    <i name="e_fr_energy">    -80.41441428 </i>
    <i name="e_wo_entrp">    -80.41441428 </i>
    <i name="e_0_energy">    -80.41441428 </i>
   </energy>
  </scstep>
  <scstep>
   <time name="dav">  204.88  204.87</time>
   <time name="total">  218.10  218.10</time>
   <energy>
    <i name="e_fr_energy">    -80.41449019 </i>
    <i name="e_wo_entrp">    -80.41449019 </i>
    <i name="e_0_energy">    -80.41449019 </i>
   </energy>
  </scstep>
  <scstep>
   <time name="dav">  188.70  188.69</time>
   <time name="total">  202.26  202.26</time>
   <energy>
    <i name="e_fr_energy">    -80.41450941 </i>
    <i name="e_wo_entrp">    -80.41450941 </i>
    <i name="e_0_energy">    -80.41450941 </i>
   </energy>
  </scstep>
  <scstep>
   <time name="dav">  153.19  153.19</time>
   <time name="total">  166.26  166.29</time>
   <energy>
    <i name="e_fr_energy">    -80.41451217 </i>
    <i name="e_wo_entrp">    -80.41451217 </i>
    <i name="e_0_energy">    -80.41451217 </i>
   </energy>
  </scstep>
  <scstep>
   <time name="dav">  167.87  167.86</time>
   <time name="total">  181.10  181.15</time>
   <energy>
    <i name="e_fr_energy">    -80.41451124 </i>
    <i name="e_wo_entrp">    -80.41451124 </i>
    <i name="e_0_energy">    -80.41451124 </i>
   </energy>
  </scstep>
  <scstep>
   <time name="dav">  172.83  172.82</time>
   <time name="total">  186.00  186.00</time>
   <energy>
    <i name="e_fr_energy">    -80.41451128 </i>
    <i name="e_wo_entrp">    -80.41451128 </i>
    <i name="e_0_energy">    -80.41451128 </i>
   </energy>
  </scstep>
  <scstep>
   <time name="dav">  185.16  185.15</time>
   <time name="total">  197.55  197.54</time>
   <energy>
    <i name="e_fr_energy">    -80.41451127 </i>
    <i name="e_wo_entrp">    -80.41451127 </i>
    <i name="e_0_energy">    -80.41451127 </i>
   </energy>
  </scstep>
  <scstep>
   <time name="dav">  147.27  147.26</time>
   <time name="total">  160.35  160.41</time>
   <energy>
    <i name="e_fr_energy">    -80.41451126 </i>
    <i name="e_wo_entrp">    -80.41451126 </i>
    <i name="e_0_energy">    -80.41451126 </i>
   </energy>
  </scstep>
  <scstep>
   <time name="dav">  117.22  117.23</time>
   <time name="total">  130.03  130.05</time>
   <energy>
    <i name="e_fr_energy">    -80.41451126 </i>
    <i name="e_wo_entrp">    -80.41451126 </i>
    <i name="e_0_energy">    -80.41451126 </i>
   </energy>
  </scstep>
  <scstep>
   <time name="dav">  118.12  118.11</time>
   <time name="total">  131.00  131.00</time>
   <energy>
    <i name="e_fr_energy">    -80.41451126 </i>
    <i name="e_wo_entrp">    -80.41451126 </i>
    <i name="e_0_energy">    -80.41451126 </i>
   </energy>
  </scstep>
  <scstep>
   <time name="dav">  111.11  111.10</time>
   <time name="total">  124.34  124.35</time>
   <energy>
    <i name="e_fr_energy">    -80.41451126 </i>
    <i name="e_wo_entrp">    -80.41451126 </i>
    <i name="e_0_energy">    -80.41451126 </i>
   </energy>
  </scstep>
  <scstep>
   <time name="dav">  110.73  110.73</time>
   <time name="total">  124.65  124.71</time>
   <energy>
    <i name="e_fr_energy">    -80.41451126 </i>
    <i name="e_wo_entrp">    -80.41451126 </i>
    <i name="e_0_energy">    -80.41451126 </i>
   </energy>
  </scstep>
  <scstep>
   <time name="dav">  107.05  107.05</time>
   <time name="total">  120.10  120.10</time>
   <energy>
    <i name="e_fr_energy">    -80.41451126 </i>
    <i name="e_wo_entrp">    -80.41451126 </i>
    <i name="e_0_energy">    -80.41451126 </i>
   </energy>
  </scstep>
  <scstep>
   <time name="dav">  106.21  106.20</time>
   <time name="total">  119.02  119.02</time>
   <energy>
    <i name="e_fr_energy">    -80.41451126 </i>
    <i name="e_wo_entrp">    -80.41451126 </i>
    <i name="e_0_energy">    -80.41451126 </i>
   </energy>
  </scstep>
  <scstep>
   <time name="dav">  104.01  104.01</time>
   <time name="total">  116.78  116.78</time>
   <energy>
    <i name="e_fr_energy">    -80.41451126 </i>
    <i name="e_wo_entrp">    -80.41451126 </i>
    <i name="e_0_energy">    -80.41451126 </i>
   </energy>
  </scstep>
  <scstep>
   <time name="dav">  107.42  107.42</time>
   <time name="total">  120.34  120.40</time>
   <energy>
    <i name="e_fr_energy">    -80.41451126 </i>
    <i name="e_wo_entrp">    -80.41451126 </i>
    <i name="e_0_energy">    -80.41451126 </i>
   </energy>
  </scstep>
  <scstep>
   <time name="dav">  103.87  103.86</time>
   <time name="total">  117.68  117.68</time>
   <energy>
    <i name="e_fr_energy">    -80.41451126 </i>
    <i name="e_wo_entrp">    -80.41451126 </i>
    <i name="e_0_energy">    -80.41451126 </i>
   </energy>
  </scstep>
  <scstep>
   <time name="dav">  100.94  100.93</time>
   <time name="total">  114.34  114.40</time>
   <energy>
    <i name="e_fr_energy">    -80.41451126 </i>
    <i name="e_wo_entrp">    -80.41451126 </i>
    <i name="e_0_energy">    -80.41451126 </i>
   </energy>
  </scstep>
  <scstep>
   <time name="dav">  107.31  107.31</time>
   <time name="total">  111.15  111.20</time>
   <energy>
    <i name="alphaZ">    504.22114011 </i>
    <i name="ewald">  -5730.91987010 </i>
    <i name="hartreedc">  -1769.53261578 </i>
    <i name="XCdc">    365.59177717 </i>
    <i name="pawpsdc">   4992.68920227 </i>
    <i name="pawaedc">  -4942.32549568 </i>
    <i name="eentropy">      0.00000000 </i>
    <i name="bandstr">   -954.22576610 </i>
    <i name="atom">   7454.08711683 </i>
    <i name="e_fr_energy">    -80.41451126 </i>
    <i name="e_wo_entrp">    -80.41451126 </i>
    <i name="e_0_energy">    -80.41451126 </i>
   </energy>
  </scstep>
  <structure>
   <crystal>
    <varray name="basis" >
     <v>       0.00000000       3.94419668       3.94419668 </v>
     <v>       3.93236409       0.00000000       3.94419668 </v>
     <v>       3.93236409       3.94419668       0.00000000 </v>
    </varray>
    <i name="volume">    122.34911846 </i>
    <varray name="rec_basis" >
     <v>      -0.12714998       0.12676853       0.12676853 </v>
     <v>       0.12714998      -0.12676853       0.12676853 </v>
     <v>       0.12714998       0.12676853      -0.12676853 </v>
    </varray>
   </crystal>
   <varray name="positions" >
    <v>       0.00000000       0.00000000       0.00000000 </v>
    <v>       0.50000000       0.50000000       0.50000000 </v>
    <v>       0.25000000       0.25000000       0.25000000 </v>
    <v>       0.75000000       0.75000000       0.75000000 </v>
    <v>       0.00000000       0.00000000       0.50000000 </v>
    <v>       0.50000000       0.50000000       0.00000000 </v>
    <v>       0.00000000       0.50000000       0.00000000 </v>
    <v>       0.50000000       0.00000000       0.50000000 </v>
    <v>       0.50000000       0.00000000       0.00000000 </v>
    <v>       0.00000000       0.50000000       0.50000000 </v>
   </varray>
  </structure>
  <varray name="forces" >
   <v>       0.00000000       0.00000000       0.00000000 </v>
   <v>       0.00000000       0.00000000       0.00000000 </v>
   <v>       0.00000000       0.00000000       0.00000000 </v>
   <v>       0.00000000       0.00000000       0.00000000 </v>
   <v>       0.00000000       0.00000000       0.00000000 </v>
   <v>       0.00000000       0.00000000       0.00000000 </v>
   <v>       0.00000000       0.00000000       0.00000000 </v>
   <v>       0.00000000       0.00000000       0.00000000 </v>
   <v>       0.00000000       0.00000000       0.00000000 </v>
   <v>       0.00000000       0.00000000       0.00000000 </v>
  </varray>
  <varray name="stress" >
   <v>       8.28330413       0.00000000       0.00000000 </v>
   <v>       0.00000000       1.59746932       0.00000000 </v>
   <v>       0.00000000       0.00000000       1.59746932 </v>
  </varray>
  <energy>
   <i name="e_fr_energy">    -80.41451126 </i>
   <i name="e_wo_entrp">    -80.41451126 </i>
   <i name="e_0_energy">      0.00000000 </i>
  </energy>
  <kpoints>
   <generation param="Gamma">
    <v type="int" name="divisions">       4        4        4 </v>
    <v name="usershift">      0.00000000       0.00000000       0.00000000 </v>
    <v name="genvec1">      0.25000000       0.00000000       0.00000000 </v>
    <v name="genvec2">      0.00000000       0.25000000       0.00000000 </v>
    <v name="genvec3">      0.00000000       0.00000000       0.25000000 </v>
    <v name="shift">      0.00000000       0.00000000       0.00000000 </v>
   </generation>
   <varray name="kpointlist" >
    <v>       0.00000000       0.00000000       0.00000000 </v>
    <v>       0.25000000       0.00000000       0.00000000 </v>
    <v>       0.50000000       0.00000000       0.00000000 </v>
    <v>       0.25000000       0.25000000       0.00000000 </v>
    <v>       0.50000000       0.25000000       0.00000000 </v>
    <v>      -0.25000000       0.25000000       0.00000000 </v>
    <v>       0.50000000       0.50000000       0.00000000 </v>
    <v>       0.25000000       0.00000000       0.25000000 </v>
    <v>       0.50000000       0.00000000       0.25000000 </v>
    <v>      -0.25000000       0.00000000       0.25000000 </v>
    <v>      -0.25000000       0.50000000       0.25000000 </v>
    <v>       0.50000000      -0.25000000       0.25000000 </v>
    <v>       0.50000000       0.00000000       0.50000000 </v>
   </varray>
   <varray name="weights" >
    <v>       0.01562500 </v>
    <v>       0.12500000 </v>
    <v>       0.06250000 </v>
    <v>       0.06250000 </v>
    <v>       0.25000000 </v>
    <v>       0.12500000 </v>
    <v>       0.03125000 </v>
    <v>       0.03125000 </v>
    <v>       0.12500000 </v>
    <v>       0.06250000 </v>
    <v>       0.03125000 </v>
    <v>       0.06250000 </v>
    <v>       0.01562500 </v>
   </varray>
  </kpoints>
  <time name="totalsc"> 3713.57 3713.96</time>
 </calculation>
 <calculation>
  <scstep>
   <time name="dav">  193.80  193.79</time>
   <time name="total">  206.84  206.83</time>
   <energy>
    <i name="alphaZ">    501.20486210 </i>
    <i name="ewald">  -5719.46951687 </i>
    <i name="hartreedc">  -1765.99235157 </i>
    <i name="XCdc">    364.89558860 </i>
    <i name="pawpsdc">   4992.68920231 </i>
    <i name="pawaedc">  -4942.32549574 </i>
    <i name="eentropy">      0.00000000 </i>
    <i name="bandstr">   -965.52840833 </i>
    <i name="atom">   7454.08711683 </i>
    <i name="e_fr_energy">    -80.43900267 </i>
    <i name="e_wo_entrp">    -80.43900267 </i>
    <i name="e_0_energy">    -80.43900267 </i>
   </energy>
  </scstep>
  <scstep>
   <time name="dav">  173.76  173.75</time>
   <time name="total">  186.33  186.32</time>
   <energy>
    <i name="e_fr_energy">    -80.41750487 </i>
    <i name="e_wo_entrp">    -80.41750487 </i>
    <i name="e_0_energy">    -80.41750487 </i>
   </energy>
  </scstep>
  <scstep>
   <time name="dav">  187.17  187.16</time>
   <time name="total">  200.10  200.16</time>
   <energy>
    <i name="e_fr_energy">    -80.41418885 </i>
    <i name="e_wo_entrp">    -80.41418885 </i>
    <i name="e_0_energy">    -80.41418885 </i>
   </energy>
  </scstep>
  <scstep>
   <time name="dav">  206.84  206.83</time>
   <time name="total">  219.47  219.46</time>
   <energy>
    <i name="e_fr_energy">    -80.41399516 </i>
    <i name="e_wo_entrp">    -80.41399516 </i>
    <i name="e_0_energy">    -80.41399516 </i>
   </energy>
  </scstep>
  <scstep>
   <time name="dav">  220.76  220.75</time>
   <time name="total">  234.09  234.09</time>
   <energy>
    <i name="e_fr_energy">    -80.41400026 </i>
    <i name="e_wo_entrp">    -80.41400026 </i>
    <i name="e_0_energy">    -80.41400026 </i>
   </energy>
  </scstep>
  <scstep>
   <time name="dav">  219.29  219.28</time>
   <time name="total">  231.77  231.78</time>
   <energy>
    <i name="e_fr_energy">    -80.41393371 </i>
    <i name="e_wo_entrp">    -80.41393371 </i>
    <i name="e_0_energy">    -80.41393371 </i>
   </energy>
  </scstep>
  <scstep>
   <time name="dav">  176.18  176.18</time>
   <time name="total">  189.43  189.43</time>
   <energy>
    <i name="e_fr_energy">    -80.41389292 </i>
    <i name="e_wo_entrp">    -80.41389292 </i>
    <i name="e_0_energy">    -80.41389292 </i>
   </energy>
  </scstep>
  <scstep>
   <time name="dav">  177.29  177.28</time>
   <time name="total">  189.79  189.83</time>
   <energy>
    <i name="e_fr_energy">    -80.41387473 </i>
    <i name="e_wo_entrp">    -80.41387473 </i>
    <i name="e_0_energy">    -80.41387473 </i>
   </energy>
  </scstep>
  <scstep>
   <time name="dav">  169.23  169.22</time>
   <time name="total">  181.97  181.96</time>
   <energy>
    <i name="e_fr_energy">    -80.41386861 </i>
    <i name="e_wo_entrp">    -80.41386861 </i>
    <i name="e_0_energy">    -80.41386861 </i>
   </energy>
  </scstep>
  <scstep>
   <time name="dav">  184.34  184.33</time>
   <time name="total">  198.12  198.12</time>
   <energy>
    <i name="e_fr_energy">    -80.41386529 </i>
    <i name="e_wo_entrp">    -80.41386529 </i>
    <i name="e_0_energy">    -80.41386529 </i>
   </energy>
  </scstep>
  <scstep>
   <time name="dav">  183.51  183.50</time>
   <time name="total">  196.36  196.37</time>
   <energy>
    <i name="e_fr_energy">    -80.41386336 </i>
    <i name="e_wo_entrp">    -80.41386336 </i>
    <i name="e_0_energy">    -80.41386336 </i>
   </energy>
  </scstep>
  <scstep>
   <time name="dav">  167.16  167.15</time>
   <time name="total">  179.54  179.57</time>
   <energy>
    <i name="e_fr_energy">    -80.41386283 </i>
    <i name="e_wo_entrp">    -80.41386283 </i>
    <i name="e_0_energy">    -80.41386283 </i>
   </energy>
  </scstep>
  <scstep>
   <time name="dav">  138.41  138.41</time>
   <time name="total">  151.68  151.73</time>
   <energy>
    <i name="e_fr_energy">    -80.41386256 </i>
    <i name="e_wo_entrp">    -80.41386256 </i>
    <i name="e_0_energy">    -80.41386256 </i>
   </energy>
  </scstep>
  <scstep>
   <time name="dav">  111.89  111.88</time>
   <time name="total">  124.56  124.57</time>
   <energy>
    <i name="e_fr_energy">    -80.41386255 </i>
    <i name="e_wo_entrp">    -80.41386255 </i>
    <i name="e_0_energy">    -80.41386255 </i>
   </energy>
  </scstep>
  <scstep>
   <time name="dav">  101.96  101.96</time>
   <time name="total">  113.78  113.78</time>
   <energy>
    <i name="e_fr_energy">    -80.41386254 </i>
    <i name="e_wo_entrp">    -80.41386254 </i>
    <i name="e_0_energy">    -80.41386254 </i>
   </energy>
  </scstep>
  <scstep>
   <time name="dav">  107.88  107.88</time>
   <time name="total">  120.19  120.19</time>
   <energy>
    <i name="e_fr_energy">    -80.41386254 </i>
    <i name="e_wo_entrp">    -80.41386254 </i>
    <i name="e_0_energy">    -80.41386254 </i>
   </energy>
  </scstep>
  <scstep>
   <time name="dav">  107.41  107.40</time>
   <time name="total">  120.29  120.29</time>
   <energy>
    <i name="e_fr_energy">    -80.41386254 </i>
    <i name="e_wo_entrp">    -80.41386254 </i>
    <i name="e_0_energy">    -80.41386254 </i>
   </energy>
  </scstep>
  <scstep>
   <time name="dav">  107.81  107.83</time>
   <time name="total">  111.87  111.89</time>
   <energy>
    <i name="alphaZ">    501.20486210 </i>
    <i name="ewald">  -5719.46951687 </i>
    <i name="hartreedc">  -1774.01410520 </i>
    <i name="XCdc">    365.39911233 </i>
    <i name="pawpsdc">   4985.73002850 </i>
    <i name="pawaedc">  -4935.59445016 </i>
    <i name="eentropy">      0.00000000 </i>
    <i name="bandstr">   -957.75691008 </i>
    <i name="atom">   7454.08711683 </i>
    <i name="e_fr_energy">    -80.41386254 </i>
    <i name="e_wo_entrp">    -80.41386254 </i>
    <i name="e_0_energy">    -80.41386254 </i>
   </energy>
  </scstep>
  <structure>
   <crystal>
    <varray name="basis" >
     <v>       0.00000000       3.95602927       3.94419668 </v>
     <v>       3.94419668       0.00000000       3.94419668 </v>
     <v>       3.94419668       3.95602927       0.00000000 </v>
    </varray>
    <i name="volume">    123.08542208 </i>
    <varray name="rec_basis" >
     <v>      -0.12676853       0.12638936       0.12676853 </v>
     <v>       0.12676853      -0.12638936       0.12676853 </v>
     <v>       0.12676853       0.12638936      -0.12676853 </v>
    </varray>
   </crystal>
   <varray name="positions" >
    <v>       0.00000000       0.00000000       0.00000000 </v>
    <v>       0.50000000       0.50000000       0.50000000 </v>
    <v>       0.25000000       0.25000000       0.25000000 </v>
    <v>       0.75000000       0.75000000       0.75000000 </v>
    <v>       0.00000000       0.00000000       0.50000000 </v>
    <v>       0.50000000       0.50000000       0.00000000 </v>
    <v>       0.00000000       0.50000000       0.00000000 </v>
    <v>       0.50000000       0.00000000       0.50000000 </v>
    <v>       0.50000000       0.00000000       0.00000000 </v>
    <v>       0.00000000       0.50000000       0.50000000 </v>
   </varray>
  </structure>
  <varray name="forces" >
   <v>       0.00000000       0.00000000       0.00000000 </v>
   <v>       0.00000000       0.00000000       0.00000000 </v>
   <v>       0.00000000       0.00000000       0.00000000 </v>
   <v>       0.00000000       0.00000000       0.00000000 </v>
   <v>       0.00000000       0.00000000       0.00000000 </v>
   <v>       0.00000000       0.00000000       0.00000000 </v>
   <v>       0.00000000       0.00000000       0.00000000 </v>
   <v>       0.00000000       0.00000000       0.00000000 </v>
   <v>       0.00000000       0.00000000       0.00000000 </v>
   <v>       0.00000000       0.00000000       0.00000000 </v>
  </varray>
  <varray name="stress" >
   <v>      -4.45077775       0.00000000       0.00000000 </v>
   <v>       0.00000000     -10.97334348       0.00000000 </v>
   <v>       0.00000000       0.00000000      -4.45077775 </v>
  </varray>
  <energy>
   <i name="e_fr_energy">    -80.41386254 </i>
   <i name="e_wo_entrp">    -80.41386254 </i>
   <i name="e_0_energy">      0.00000000 </i>
  </energy>
  <kpoints>
   <generation param="Gamma">
    <v type="int" name="divisions">       4        4        4 </v>
    <v name="usershift">      0.00000000       0.00000000       0.00000000 </v>
    <v name="genvec1">      0.25000000       0.00000000       0.00000000 </v>
    <v name="genvec2">      0.00000000       0.25000000       0.00000000 </v>
    <v name="genvec3">      0.00000000       0.00000000       0.25000000 </v>
    <v name="shift">      0.00000000       0.00000000       0.00000000 </v>
   </generation>
   <varray name="kpointlist" >
    <v>       0.00000000       0.00000000       0.00000000 </v>
    <v>       0.25000000       0.00000000       0.00000000 </v>
    <v>       0.50000000       0.00000000       0.00000000 </v>
    <v>       0.25000000       0.25000000       0.00000000 </v>
    <v>       0.50000000       0.25000000       0.00000000 </v>
    <v>      -0.25000000       0.25000000       0.00000000 </v>
    <v>       0.50000000       0.50000000       0.00000000 </v>
    <v>       0.25000000       0.00000000       0.25000000 </v>
    <v>       0.50000000       0.00000000       0.25000000 </v>
    <v>      -0.25000000       0.00000000       0.25000000 </v>
    <v>      -0.25000000       0.50000000       0.25000000 </v>
    <v>       0.50000000      -0.25000000       0.25000000 </v>
    <v>       0.50000000       0.00000000       0.50000000 </v>
   </varray>
   <varray name="weights" >
    <v>       0.01562500 </v>
    <v>       0.12500000 </v>
    <v>       0.06250000 </v>
    <v>       0.06250000 </v>
    <v>       0.25000000 </v>
    <v>       0.12500000 </v>
    <v>       0.03125000 </v>
    <v>       0.03125000 </v>
    <v>       0.12500000 </v>
    <v>       0.06250000 </v>
    <v>       0.03125000 </v>
    <v>       0.06250000 </v>
    <v>       0.01562500 </v>
   </varray>
  </kpoints>
  <time name="totalsc"> 3220.18 3220.35</time>
 </calculation>
 <calculation>
  <scstep>
   <time name="dav">  187.56  187.55</time>
   <time name="total">  199.91  199.90</time>
   <energy>
    <i name="alphaZ">    504.22114011 </i>
    <i name="ewald">  -5730.91987010 </i>
    <i name="hartreedc">  -1777.54684773 </i>
    <i name="XCdc">    366.09614194 </i>
    <i name="pawpsdc">   4985.73003043 </i>
    <i name="pawaedc">  -4935.59445200 </i>
    <i name="eentropy">      0.00000000 </i>
    <i name="bandstr">   -946.51757303 </i>
    <i name="atom">   7454.08711683 </i>
    <i name="e_fr_energy">    -80.44431356 </i>
    <i name="e_wo_entrp">    -80.44431356 </i>
    <i name="e_0_energy">    -80.44431356 </i>
   </energy>
  </scstep>
  <scstep>
   <time name="dav">  172.11  172.11</time>
   <time name="total">  184.94  184.94</time>
   <energy>
    <i name="e_fr_energy">    -80.42028071 </i>
    <i name="e_wo_entrp">    -80.42028071 </i>
    <i name="e_0_energy">    -80.42028071 </i>
   </energy>
  </scstep>
  <scstep>
   <time name="dav">  191.53  191.53</time>
   <time name="total">  204.60  204.60</time>
   <energy>
    <i name="e_fr_energy">    -80.41464567 </i>
    <i name="e_wo_entrp">    -80.41464567 </i>
    <i name="e_0_energy">    -80.41464567 </i>
   </energy>
  </scstep>
  <scstep>
   <time name="dav">  210.22  210.23</time>
   <time name="total">  222.93  222.95</time>
   <energy>
    <i name="e_fr_energy">    -80.41437754 </i>
    <i name="e_wo_entrp">    -80.41437754 </i>
    <i name="e_0_energy">    -80.41437754 </i>
   </energy>
  </scstep>
  <scstep>
   <time name="dav">  195.28  195.28</time>
   <time name="total">  208.28  208.28</time>
   <energy>
    <i name="e_fr_energy">    -80.41441449 </i>
    <i name="e_wo_entrp">    -80.41441449 </i>
    <i name="e_0_energy">    -80.41441449 </i>
   </energy>
  </scstep>
  <scstep>
   <time name="dav">  211.22  211.24</time>
   <time name="total">  224.50  224.52</time>
   <energy>
    <i name="e_fr_energy">    -80.41449011 </i>
    <i name="e_wo_entrp">    -80.41449011 </i>
    <i name="e_0_energy">    -80.41449011 </i>
   </energy>
  </scstep>
  <scstep>
   <time name="dav">  200.52  200.53</time>
   <time name="total">  213.14  213.15</time>
   <energy>
    <i name="e_fr_energy">    -80.41450954 </i>
    <i name="e_wo_entrp">    -80.41450954 </i>
    <i name="e_0_energy">    -80.41450954 </i>
   </energy>
  </scstep>
  <scstep>
   <time name="dav">  152.01  152.03</time>
   <time name="total">  165.66  165.69</time>
   <energy>
    <i name="e_fr_energy">    -80.41451222 </i>
    <i name="e_wo_entrp">    -80.41451222 </i>
    <i name="e_0_energy">    -80.41451222 </i>
   </energy>
  </scstep>
  <scstep>
   <time name="dav">  173.51  173.51</time>
   <time name="total">  186.56  186.59</time>
   <energy>
    <i name="e_fr_energy">    -80.41451131 </i>
    <i name="e_wo_entrp">    -80.41451131 </i>
    <i name="e_0_energy">    -80.41451131 </i>
   </energy>
  </scstep>
  <scstep>
   <time name="dav">  174.14  174.15</time>
   <time name="total">  187.00  187.01</time>
   <energy>
    <i name="e_fr_energy">    -80.41451134 </i>
    <i name="e_wo_entrp">    -80.41451134 </i>
    <i name="e_0_energy">    -80.41451134 </i>
   </energy>
  </scstep>
  <scstep>
   <time name="dav">  188.26  188.28</time>
   <time name="total">  201.06  201.09</time>
   <energy>
    <i name="e_fr_energy">    -80.41451134 </i>
    <i name="e_wo_entrp">    -80.41451134 </i>
    <i name="e_0_energy">    -80.41451134 </i>
   </energy>
  </scstep>
  <scstep>
   <time name="dav">  151.23  151.25</time>
   <time name="total">  164.09  164.10</time>
   <energy>
    <i name="e_fr_energy">    -80.41451133 </i>
    <i name="e_wo_entrp">    -80.41451133 </i>
    <i name="e_0_energy">    -80.41451133 </i>
   </energy>
  </scstep>
  <scstep>
   <time name="dav">  125.15  125.17</time>
   <time name="total">  137.68  137.70</time>
   <energy>
    <i name="e_fr_energy">    -80.41451133 </i>
    <i name="e_wo_entrp">    -80.41451133 </i>
    <i name="e_0_energy">    -80.41451133 </i>
   </energy>
  </scstep>
  <scstep>
   <time name="dav">  116.66  116.65</time>
   <time name="total">  128.76  128.76</time>
   <energy>
    <i name="e_fr_energy">    -80.41451133 </i>
    <i name="e_wo_entrp">    -80.41451133 </i>
    <i name="e_0_energy">    -80.41451133 </i>
   </energy>
  </scstep>
  <scstep>
   <time name="dav">  113.12  113.12</time>
   <time name="total">  126.00  126.01</time>
   <energy>
    <i name="e_fr_energy">    -80.41451133 </i>
    <i name="e_wo_entrp">    -80.41451133 </i>
    <i name="e_0_energy">    -80.41451133 </i>
   </energy>
  </scstep>
  <scstep>
   <time name="dav">  105.88  105.88</time>
   <time name="total">  109.44  109.45</time>
   <energy>
    <i name="alphaZ">    504.22114011 </i>
    <i name="ewald">  -5730.91987010 </i>
    <i name="hartreedc">  -1769.53261541 </i>
    <i name="XCdc">    365.59177715 </i>
    <i name="pawpsdc">   4992.68920815 </i>
    <i name="pawaedc">  -4942.32550088 </i>
    <i name="eentropy">      0.00000000 </i>
    <i name="bandstr">   -954.22576718 </i>
    <i name="atom">   7454.08711683 </i>
    <i name="e_fr_energy">    -80.41451133 </i>
    <i name="e_wo_entrp">    -80.41451133 </i>
    <i name="e_0_energy">    -80.41451133 </i>
   </energy>
  </scstep>
  <structure>
   <crystal>
    <varray name="basis" >
     <v>       0.00000000       3.93236409       3.94419668 </v>
     <v>       3.94419668       0.00000000       3.94419668 </v>
     <v>       3.94419668       3.93236409       0.00000000 </v>
    </varray>
    <i name="volume">    122.34911846 </i>
    <varray name="rec_basis" >
     <v>      -0.12676853       0.12714998       0.12676853 </v>
     <v>       0.12676853      -0.12714998       0.12676853 </v>
     <v>       0.12676853       0.12714998      -0.12676853 </v>
    </varray>
   </crystal>
   <varray name="positions" >
    <v>       0.00000000       0.00000000       0.00000000 </v>
    <v>       0.50000000       0.50000000       0.50000000 </v>
    <v>       0.25000000       0.25000000       0.25000000 </v>
    <v>       0.75000000       0.75000000       0.75000000 </v>
    <v>       0.00000000       0.00000000       0.50000000 </v>
    <v>       0.50000000       0.50000000       0.00000000 </v>
    <v>       0.00000000       0.50000000       0.00000000 </v>
    <v>       0.50000000       0.00000000       0.50000000 </v>
    <v>       0.50000000       0.00000000       0.00000000 </v>
    <v>       0.00000000       0.50000000       0.50000000 </v>
   </varray>
  </structure>
  <varray name="forces" >
   <v>       0.00000000       0.00000000       0.00000000 </v>
   <v>       0.00000000       0.00000000       0.00000000 </v>
   <v>       0.00000000       0.00000000       0.00000000 </v>
   <v>       0.00000000       0.00000000       0.00000000 </v>
   <v>       0.00000000       0.00000000       0.00000000 </v>
   <v>       0.00000000       0.00000000       0.00000000 </v>
   <v>       0.00000000       0.00000000       0.00000000 </v>
   <v>       0.00000000       0.00000000       0.00000000 </v>
   <v>       0.00000000       0.00000000       0.00000000 </v>
   <v>       0.00000000       0.00000000       0.00000000 </v>
  </varray>
  <varray name="stress" >
   <v>       1.59743501       0.00000000       0.00000000 </v>
   <v>       0.00000000       8.28326441       0.00000000 </v>
   <v>       0.00000000       0.00000000       1.59743501 </v>
  </varray>
  <energy>
   <i name="e_fr_energy">    -80.41451133 </i>
   <i name="e_wo_entrp">    -80.41451133 </i>
   <i name="e_0_energy">      0.00000000 </i>
  </energy>
  <kpoints>
   <generation param="Gamma">
    <v type="int" name="divisions">       4        4        4 </v>
    <v name="usershift">      0.00000000       0.00000000       0.00000000 </v>
    <v name="genvec1">      0.25000000       0.00000000       0.00000000 </v>
    <v name="genvec2">      0.00000000       0.25000000       0.00000000 </v>
    <v name="genvec3">      0.00000000       0.00000000       0.25000000 </v>
    <v name="shift">      0.00000000       0.00000000       0.00000000 </v>
   </generation>
   <varray name="kpointlist" >
    <v>       0.00000000       0.00000000       0.00000000 </v>
    <v>       0.25000000       0.00000000       0.00000000 </v>
    <v>       0.50000000       0.00000000       0.00000000 </v>
    <v>       0.25000000       0.25000000       0.00000000 </v>
    <v>       0.50000000       0.25000000       0.00000000 </v>
    <v>      -0.25000000       0.25000000       0.00000000 </v>
    <v>       0.50000000       0.50000000       0.00000000 </v>
    <v>       0.25000000       0.00000000       0.25000000 </v>
    <v>       0.50000000       0.00000000       0.25000000 </v>
    <v>      -0.25000000       0.00000000       0.25000000 </v>
    <v>      -0.25000000       0.50000000       0.25000000 </v>
    <v>       0.50000000       0.00000000       0.50000000 </v>
    <v>      -0.25000000       0.25000000       0.50000000 </v>
   </varray>
   <varray name="weights" >
    <v>       0.01562500 </v>
    <v>       0.12500000 </v>
    <v>       0.06250000 </v>
    <v>       0.03125000 </v>
    <v>       0.12500000 </v>
    <v>       0.06250000 </v>
    <v>       0.01562500 </v>
    <v>       0.06250000 </v>
    <v>       0.25000000 </v>
    <v>       0.12500000 </v>
    <v>       0.06250000 </v>
    <v>       0.03125000 </v>
    <v>       0.03125000 </v>
   </varray>
  </kpoints>
  <time name="totalsc"> 2930.43 2930.64</time>
 </calculation>
 <calculation>
  <scstep>
   <time name="dav">  192.89  192.89</time>
   <time name="total">  206.12  206.12</time>
   <energy>
    <i name="alphaZ">    501.20486210 </i>
    <i name="ewald">  -5719.46951687 </i>
    <i name="hartreedc">  -1765.99234927 </i>
    <i name="XCdc">    364.89558847 </i>
    <i name="pawpsdc">   4992.68920292 </i>
    <i name="pawaedc">  -4942.32549771 </i>
    <i name="eentropy">      0.00000000 </i>
    <i name="bandstr">   -965.52635578 </i>
    <i name="atom">   7454.08711683 </i>
    <i name="e_fr_energy">    -80.43694930 </i>
    <i name="e_wo_entrp">    -80.43694930 </i>
    <i name="e_0_energy">    -80.43694930 </i>
   </energy>
  </scstep>
  <scstep>
   <time name="dav">  173.21  173.22</time>
   <time name="total">  186.19  186.20</time>
   <energy>
    <i name="e_fr_energy">    -80.41632318 </i>
    <i name="e_wo_entrp">    -80.41632318 </i>
    <i name="e_0_energy">    -80.41632318 </i>
   </energy>
  </scstep>
  <scstep>
   <time name="dav">  190.21  190.23</time>
   <time name="total">  203.02  203.05</time>
   <energy>
    <i name="e_fr_energy">    -80.41354700 </i>
    <i name="e_wo_entrp">    -80.41354700 </i>
    <i name="e_0_energy">    -80.41354700 </i>
   </energy>
  </scstep>
  <scstep>
   <time name="dav">  195.62  195.63</time>
   <time name="total">  208.55  208.57</time>
   <energy>
    <i name="e_fr_energy">    -80.41350759 </i>
    <i name="e_wo_entrp">    -80.41350759 </i>
    <i name="e_0_energy">    -80.41350759 </i>
   </energy>
  </scstep>
  <scstep>
   <time name="dav">  214.25  214.26</time>
   <time name="total">  227.41  227.44</time>
   <energy>
    <i name="e_fr_energy">    -80.41367800 </i>
    <i name="e_wo_entrp">    -80.41367800 </i>
    <i name="e_0_energy">    -80.41367800 </i>
   </energy>
  </scstep>
  <scstep>
   <time name="dav">  222.42  222.44</time>
   <time name="total">  235.07  235.10</time>
   <energy>
    <i name="e_fr_energy">    -80.41384359 </i>
    <i name="e_wo_entrp">    -80.41384359 </i>
    <i name="e_0_energy">    -80.41384359 </i>
   </energy>
  </scstep>
  <scstep>
   <time name="dav">  153.91  153.90</time>
   <time name="total">  166.83  166.85</time>
   <energy>
    <i name="e_fr_energy">    -80.41385461 </i>
    <i name="e_wo_entrp">    -80.41385461 </i>
    <i name="e_0_energy">    -80.41385461 </i>
   </energy>
  </scstep>
  <scstep>
   <time name="dav">  159.89  159.91</time>
   <time name="total">  173.14  173.16</time>
   <energy>
    <i name="e_fr_energy">    -80.41385784 </i>
    <i name="e_wo_entrp">    -80.41385784 </i>
    <i name="e_0_energy">    -80.41385784 </i>
   </energy>
  </scstep>
  <scstep>
   <time name="dav">  174.83  174.84</time>
   <time name="total">  187.95  187.97</time>
   <energy>
    <i name="e_fr_energy">    -80.41386053 </i>
    <i name="e_wo_entrp">    -80.41386053 </i>
    <i name="e_0_energy">    -80.41386053 </i>
   </energy>
  </scstep>
  <scstep>
   <time name="dav">  176.35  176.34</time>
   <time name="total">  188.90  188.90</time>
   <energy>
    <i name="e_fr_energy">    -80.41386159 </i>
    <i name="e_wo_entrp">    -80.41386159 </i>
    <i name="e_0_energy">    -80.41386159 </i>
   </energy>
  </scstep>
  <scstep>
   <time name="dav">  183.54  183.54</time>
   <time name="total">  196.08  196.09</time>
   <energy>
    <i name="e_fr_energy">    -80.41386232 </i>
    <i name="e_wo_entrp">    -80.41386232 </i>
    <i name="e_0_energy">    -80.41386232 </i>
   </energy>
  </scstep>
  <scstep>
   <time name="dav">  154.92  154.92</time>
   <time name="total">  167.37  167.38</time>
   <energy>
    <i name="e_fr_energy">    -80.41386243 </i>
    <i name="e_wo_entrp">    -80.41386243 </i>
    <i name="e_0_energy">    -80.41386243 </i>
   </energy>
  </scstep>
  <scstep>
   <time name="dav">  133.14  133.16</time>
   <time name="total">  145.77  145.80</time>
   <energy>
    <i name="e_fr_energy">    -80.41386254 </i>
    <i name="e_wo_entrp">    -80.41386254 </i>
    <i name="e_0_energy">    -80.41386254 </i>
   </energy>
  </scstep>
  <scstep>
   <time name="dav">  106.79  106.79</time>
   <time name="total">  119.12  119.13</time>
   <energy>
    <i name="e_fr_energy">    -80.41386254 </i>
    <i name="e_wo_entrp">    -80.41386254 </i>
    <i name="e_0_energy">    -80.41386254 </i>
   </energy>
  </scstep>
  <scstep>
   <time name="dav">  117.46  117.45</time>
   <time name="total">  129.64  129.64</time>
   <energy>
    <i name="e_fr_energy">    -80.41386254 </i>
    <i name="e_wo_entrp">    -80.41386254 </i>
    <i name="e_0_energy">    -80.41386254 </i>
   </energy>
  </scstep>
  <scstep>
   <time name="dav">  106.13  106.14</time>
   <time name="total">  119.21  119.23</time>
   <energy>
    <i name="e_fr_energy">    -80.41386254 </i>
    <i name="e_wo_entrp">    -80.41386254 </i>
    <i name="e_0_energy">    -80.41386254 </i>
   </energy>
  </scstep>
  <scstep>
   <time name="dav">  109.47  109.47</time>
   <time name="total">  121.46  121.46</time>
   <energy>
    <i name="e_fr_energy">    -80.41386254 </i>
    <i name="e_wo_entrp">    -80.41386254 </i>
    <i name="e_0_energy">    -80.41386254 </i>
   </energy>
  </scstep>
  <scstep>
   <time name="dav">  110.47  110.48</time>
   <time name="total">  123.26  123.28</time>
   <energy>
    <i name="e_fr_energy">    -80.41386254 </i>
    <i name="e_wo_entrp">    -80.41386254 </i>
    <i name="e_0_energy">    -80.41386254 </i>
   </energy>
  </scstep>
  <scstep>
   <time name="dav">  108.53  108.54</time>
   <time name="total">  112.27  112.34</time>
   <energy>
    <i name="alphaZ">    501.20486210 </i>
    <i name="ewald">  -5719.46951687 </i>
    <i name="hartreedc">  -1774.01410528 </i>
    <i name="XCdc">    365.39911234 </i>
    <i name="pawpsdc">   4985.73003076 </i>
    <i name="pawaedc">  -4935.59445240 </i>
    <i name="eentropy">      0.00000000 </i>
    <i name="bandstr">   -957.75691002 </i>
    <i name="atom">   7454.08711683 </i>
    <i name="e_fr_energy">    -80.41386254 </i>
    <i name="e_wo_entrp">    -80.41386254 </i>
    <i name="e_0_energy">    -80.41386254 </i>
   </energy>
  </scstep>
  <structure>
   <crystal>
    <varray name="basis" >
     <v>       0.00000000       3.94419668       3.95602927 </v>
     <v>       3.94419668       0.00000000       3.95602927 </v>
     <v>       3.94419668       3.94419668       0.00000000 </v>
    </varray>
    <i name="volume">    123.08542208 </i>
    <varray name="rec_basis" >
     <v>      -0.12676853       0.12676853       0.12638936 </v>
     <v>       0.12676853      -0.12676853       0.12638936 </v>
     <v>       0.12676853       0.12676853      -0.12638936 </v>
    </varray>
   </crystal>
   <varray name="positions" >
    <v>       0.00000000       0.00000000       0.00000000 </v>
    <v>       0.50000000       0.50000000       0.50000000 </v>
    <v>       0.25000000       0.25000000       0.25000000 </v>
    <v>       0.75000000       0.75000000       0.75000000 </v>
    <v>       0.00000000       0.00000000       0.50000000 </v>
    <v>       0.50000000       0.50000000       0.00000000 </v>
    <v>       0.00000000       0.50000000       0.00000000 </v>
    <v>       0.50000000       0.00000000       0.50000000 </v>
    <v>       0.50000000       0.00000000       0.00000000 </v>
    <v>       0.00000000       0.50000000       0.50000000 </v>
   </varray>
  </structure>
  <varray name="forces" >
   <v>       0.00000000       0.00000000       0.00000000 </v>
   <v>       0.00000000       0.00000000       0.00000000 </v>
   <v>       0.00000000       0.00000000       0.00000000 </v>
   <v>       0.00000000       0.00000000       0.00000000 </v>
   <v>       0.00000000       0.00000000       0.00000000 </v>
   <v>       0.00000000       0.00000000       0.00000000 </v>
   <v>       0.00000000       0.00000000       0.00000000 </v>
   <v>       0.00000000       0.00000000       0.00000000 </v>
   <v>       0.00000000       0.00000000       0.00000000 </v>
   <v>       0.00000000       0.00000000       0.00000000 </v>
  </varray>
  <varray name="stress" >
   <v>      -4.45080100       0.00000000       0.00000000 </v>
   <v>       0.00000000      -4.45080100       0.00000000 </v>
   <v>       0.00000000       0.00000000     -10.97364761 </v>
  </varray>
  <energy>
   <i name="e_fr_energy">    -80.41386254 </i>
   <i name="e_wo_entrp">    -80.41386254 </i>
   <i name="e_0_energy">      0.00000000 </i>
  </energy>
  <kpoints>
   <generation param="Gamma">
    <v type="int" name="divisions">       4        4        4 </v>
    <v name="usershift">      0.00000000       0.00000000       0.00000000 </v>
    <v name="genvec1">      0.25000000       0.00000000       0.00000000 </v>
    <v name="genvec2">      0.00000000       0.25000000       0.00000000 </v>
    <v name="genvec3">      0.00000000       0.00000000       0.25000000 </v>
    <v name="shift">      0.00000000       0.00000000       0.00000000 </v>
   </generation>
   <varray name="kpointlist" >
    <v>       0.00000000       0.00000000       0.00000000 </v>
    <v>       0.25000000       0.00000000       0.00000000 </v>
    <v>       0.50000000       0.00000000       0.00000000 </v>
    <v>       0.25000000       0.25000000       0.00000000 </v>
    <v>       0.50000000       0.25000000       0.00000000 </v>
    <v>      -0.25000000       0.25000000       0.00000000 </v>
    <v>       0.50000000       0.50000000       0.00000000 </v>
    <v>       0.25000000       0.00000000       0.25000000 </v>
    <v>       0.50000000       0.00000000       0.25000000 </v>
    <v>      -0.25000000       0.00000000       0.25000000 </v>
    <v>      -0.25000000       0.50000000       0.25000000 </v>
    <v>       0.50000000       0.00000000       0.50000000 </v>
    <v>      -0.25000000       0.25000000       0.50000000 </v>
   </varray>
   <varray name="weights" >
    <v>       0.01562500 </v>
    <v>       0.12500000 </v>
    <v>       0.06250000 </v>
    <v>       0.03125000 </v>
    <v>       0.12500000 </v>
    <v>       0.06250000 </v>
    <v>       0.01562500 </v>
    <v>       0.06250000 </v>
    <v>       0.25000000 </v>
    <v>       0.12500000 </v>
    <v>       0.06250000 </v>
    <v>       0.03125000 </v>
    <v>       0.03125000 </v>
   </varray>
  </kpoints>
  <time name="totalsc"> 3282.12 3282.44</time>
 </calculation>
 <calculation>
  <scstep>
   <time name="dav">  175.14  175.15</time>
   <time name="total">  187.72  187.73</time>
   <energy>
    <i name="alphaZ">    504.22114011 </i>
    <i name="ewald">  -5730.91987010 </i>
    <i name="hartreedc">  -1777.54684727 </i>
    <i name="XCdc">    366.09614191 </i>
    <i name="pawpsdc">   4985.73003084 </i>
    <i name="pawaedc">  -4935.59445268 </i>
    <i name="eentropy">      0.00000000 </i>
    <i name="bandstr">   -946.51820630 </i>
[...]
       <set comment="band 32">
        <r>  0.0000  0.0045  0.0096 </r>
        <r>  0.0000  0.0045  0.0096 </r>
        <r>  0.0000  0.0000  0.1498 </r>
        <r>  0.0000  0.0000  0.0000 </r>
        <r>  0.0000  0.1217  0.0000 </r>
        <r>  0.0000  0.1251  0.0000 </r>
        <r>  0.0000  0.0000  0.0000 </r>
        <r>  0.0000  0.0000  0.0000 </r>
        <r>  0.0000  0.1234  0.0000 </r>
        <r>  0.0000  0.1234  0.0000 </r>
       </set>
       <set comment="band 33">
        <r>  0.0029  0.0103  0.0068 </r>
        <r>  0.0029  0.0103  0.0068 </r>
        <r>  0.0000  0.0030  0.0012 </r>
        <r>  0.0000  0.0030  0.0012 </r>
        <r>  0.0044  0.0033  0.0000 </r>
        <r>  0.0044  0.0033  0.0000 </r>
        <r>  0.0000  0.0002  0.0000 </r>
        <r>  0.0000  0.0002  0.0000 </r>
        <r>  0.0000  0.2926  0.0000 </r>
        <r>  0.0000  0.2926  0.0000 </r>
       </set>
       <set comment="band 34">
        <r>  0.0029  0.0103  0.0068 </r>
        <r>  0.0029  0.0103  0.0068 </r>
        <r>  0.0000  0.0029  0.0012 </r>
        <r>  0.0000  0.0030  0.0012 </r>
        <r>  0.0000  0.2926  0.0000 </r>
        <r>  0.0000  0.2926  0.0000 </r>
        <r>  0.0000  0.0002  0.0000 </r>
        <r>  0.0000  0.0002  0.0000 </r>
        <r>  0.0044  0.0033  0.0000 </r>
        <r>  0.0044  0.0033  0.0000 </r>
       </set>
       <set comment="band 35">
        <r>  0.0000  0.0076  0.0063 </r>
        <r>  0.0000  0.0076  0.0063 </r>
        <r>  0.0059  0.0000  0.0287 </r>
        <r>  0.0000  0.0000  0.0005 </r>
        <r>  0.0000  0.1536  0.0000 </r>
        <r>  0.0000  0.1530  0.0000 </r>
        <r>  0.0038  0.0454  0.0000 </r>
        <r>  0.0038  0.0454  0.0000 </r>
        <r>  0.0000  0.1211  0.0000 </r>
        <r>  0.0000  0.1211  0.0000 </r>
       </set>
       <set comment="band 36">
        <r>  0.0000  0.0076  0.0063 </r>
        <r>  0.0000  0.0076  0.0063 </r>
        <r>  0.0000  0.0000  0.0005 </r>
        <r>  0.0059  0.0000  0.0286 </r>
        <r>  0.0000  0.1209  0.0000 </r>
        <r>  0.0000  0.1215  0.0000 </r>
        <r>  0.0038  0.0453  0.0000 </r>
        <r>  0.0038  0.0453  0.0000 </r>
        <r>  0.0000  0.1534  0.0000 </r>
        <r>  0.0000  0.1534  0.0000 </r>
       </set>
       <set comment="band 37">
        <r>  0.0000  0.0000  0.0026 </r>
        <r>  0.0000  0.0000  0.0026 </r>
        <r>  0.0000  0.0346  0.0253 </r>
        <r>  0.0000  0.0345  0.0254 </r>
        <r>  0.0000  0.0000  0.0000 </r>
        <r>  0.0000  0.0000  0.0000 </r>
        <r>  0.0000  0.0765  0.0000 </r>
        <r>  0.0000  0.0765  0.0000 </r>
        <r>  0.0000  0.2540  0.0000 </r>
        <r>  0.0000  0.2540  0.0000 </r>
       </set>
       <set comment="band 38">
        <r>  0.0000  0.0000  0.0026 </r>
        <r>  0.0000  0.0000  0.0026 </r>
        <r>  0.0000  0.0343  0.0254 </r>
        <r>  0.0000  0.0346  0.0253 </r>
        <r>  0.0000  0.2540  0.0000 </r>
        <r>  0.0000  0.2540  0.0000 </r>
        <r>  0.0000  0.0765  0.0000 </r>
        <r>  0.0000  0.0765  0.0000 </r>
        <r>  0.0000  0.0000  0.0000 </r>
        <r>  0.0000  0.0000  0.0000 </r>
       </set>
       <set comment="band 39">
        <r>  0.0003  0.0016  0.0062 </r>
        <r>  0.0003  0.0016  0.0062 </r>
        <r>  0.0000  0.0009  0.0069 </r>
        <r>  0.0000  0.0010  0.0070 </r>
        <r>  0.0009  0.1645  0.0000 </r>
        <r>  0.0009  0.1645  0.0000 </r>
        <r>  0.0000  0.1814  0.0000 </r>
        <r>  0.0000  0.1814  0.0000 </r>
        <r>  0.0000  0.0012  0.0000 </r>
        <r>  0.0000  0.0012  0.0000 </r>
       </set>
       <set comment="band 40">
        <r>  0.0003  0.0016  0.0062 </r>
        <r>  0.0003  0.0016  0.0062 </r>
        <r>  0.0000  0.0009  0.0070 </r>
        <r>  0.0000  0.0009  0.0070 </r>
        <r>  0.0000  0.0012  0.0000 </r>
        <r>  0.0000  0.0012  0.0000 </r>
        <r>  0.0000  0.1814  0.0000 </r>
        <r>  0.0000  0.1814  0.0000 </r>
        <r>  0.0009  0.1645  0.0000 </r>
        <r>  0.0009  0.1645  0.0000 </r>
       </set>
       <set comment="band 41">
        <r>  0.0000  0.0000  0.0009 </r>
        <r>  0.0000  0.0000  0.0009 </r>
        <r>  0.0000  0.0000  0.3813 </r>
        <r>  0.0000  0.0000  0.3728 </r>
        <r>  0.0000  0.0043  0.0000 </r>
        <r>  0.0000  0.0043  0.0000 </r>
        <r>  0.0000  0.0546  0.0000 </r>
        <r>  0.0000  0.0546  0.0000 </r>
        <r>  0.0000  0.0000  0.0000 </r>
        <r>  0.0000  0.0000  0.0000 </r>
       </set>
       <set comment="band 42">
        <r>  0.0000  0.0000  0.0009 </r>
        <r>  0.0000  0.0000  0.0009 </r>
        <r>  0.0000  0.0000  0.3788 </r>
        <r>  0.0000  0.0000  0.3752 </r>
        <r>  0.0000  0.0000  0.0000 </r>
        <r>  0.0000  0.0000  0.0000 </r>
        <r>  0.0000  0.0546  0.0000 </r>
        <r>  0.0000  0.0546  0.0000 </r>
        <r>  0.0000  0.0043  0.0000 </r>
        <r>  0.0000  0.0043  0.0000 </r>
       </set>
       <set comment="band 43">
        <r>  0.0000  0.0000  0.0006 </r>
        <r>  0.0000  0.0000  0.0006 </r>
        <r>  0.0000  0.0000  0.7377 </r>
        <r>  0.0000  0.0000  0.0000 </r>
        <r>  0.0000  0.0430  0.0000 </r>
        <r>  0.0000  0.0431  0.0000 </r>
        <r>  0.0000  0.0000  0.0000 </r>
        <r>  0.0000  0.0000  0.0000 </r>
        <r>  0.0000  0.0433  0.0000 </r>
        <r>  0.0000  0.0433  0.0000 </r>
       </set>
       <set comment="band 44">
        <r>  0.0000  0.0000  0.0006 </r>
        <r>  0.0000  0.0000  0.0006 </r>
        <r>  0.0000  0.0000  0.0000 </r>
        <r>  0.0000  0.0000  0.7379 </r>
        <r>  0.0000  0.0434  0.0000 </r>
        <r>  0.0000  0.0432  0.0000 </r>
        <r>  0.0000  0.0000  0.0000 </r>
        <r>  0.0000  0.0000  0.0000 </r>
        <r>  0.0000  0.0430  0.0000 </r>
        <r>  0.0000  0.0430  0.0000 </r>
       </set>
       <set comment="band 45">
        <r>  0.0010  0.0001  0.0097 </r>
        <r>  0.0010  0.0001  0.0097 </r>
        <r>  0.0000  0.0002  0.3780 </r>
        <r>  0.0000  0.0002  0.3816 </r>
        <r>  0.0000  0.0000  0.0000 </r>
        <r>  0.0000  0.0000  0.0000 </r>
        <r>  0.0000  0.0044  0.0000 </r>
        <r>  0.0000  0.0044  0.0000 </r>
        <r>  0.0007  0.0495  0.0000 </r>
        <r>  0.0007  0.0495  0.0000 </r>
       </set>
       <set comment="band 46">
        <r>  0.0010  0.0001  0.0097 </r>
        <r>  0.0010  0.0001  0.0097 </r>
        <r>  0.0000  0.0002  0.3757 </r>
        <r>  0.0000  0.0002  0.3839 </r>
        <r>  0.0007  0.0495  0.0000 </r>
        <r>  0.0007  0.0495  0.0000 </r>
        <r>  0.0000  0.0044  0.0000 </r>
        <r>  0.0000  0.0044  0.0000 </r>
        <r>  0.0000  0.0000  0.0000 </r>
        <r>  0.0000  0.0000  0.0000 </r>
       </set>
       <set comment="band 47">
        <r>  0.0000  0.0002  0.0010 </r>
        <r>  0.0000  0.0002  0.0010 </r>
        <r>  0.0000  0.0045  0.4795 </r>
        <r>  0.0213  0.0000  0.3310 </r>
        <r>  0.0119  0.0032  0.0000 </r>
        <r>  0.0119  0.0033  0.0000 </r>
        <r>  0.0012  0.0187  0.0000 </r>
        <r>  0.0012  0.0187  0.0000 </r>
        <r>  0.0117  0.0032  0.0000 </r>
        <r>  0.0117  0.0032  0.0000 </r>
       </set>
       <set comment="band 48">
        <r>  0.0000  0.0002  0.0010 </r>
        <r>  0.0000  0.0002  0.0010 </r>
        <r>  0.0213  0.0000  0.3350 </r>
        <r>  0.0000  0.0045  0.4750 </r>
        <r>  0.0117  0.0031  0.0000 </r>
        <r>  0.0117  0.0031  0.0000 </r>
        <r>  0.0012  0.0190  0.0000 </r>
        <r>  0.0012  0.0190  0.0000 </r>
        <r>  0.0119  0.0031  0.0000 </r>
        <r>  0.0119  0.0031  0.0000 </r>
       </set>
       <set comment="band 49">
        <r>  0.0000  0.0010  0.0026 </r>
        <r>  0.0000  0.0010  0.0026 </r>
        <r>  0.0000  0.0119  0.2602 </r>
        <r>  0.0161  0.0000  0.4005 </r>
        <r>  0.0017  0.0307  0.0000 </r>
        <r>  0.0018  0.0306  0.0000 </r>
        <r>  0.0094  0.0488  0.0000 </r>
        <r>  0.0094  0.0488  0.0000 </r>
        <r>  0.0017  0.0319  0.0000 </r>
        <r>  0.0017  0.0319  0.0000 </r>
       </set>
       <set comment="band 50">
        <r>  0.0000  0.0010  0.0027 </r>
        <r>  0.0000  0.0010  0.0027 </r>
        <r>  0.0162  0.0000  0.3965 </r>
        <r>  0.0000  0.0119  0.2638 </r>
        <r>  0.0018  0.0318  0.0000 </r>
        <r>  0.0018  0.0319  0.0000 </r>
        <r>  0.0093  0.0486  0.0000 </r>
        <r>  0.0093  0.0486  0.0000 </r>
        <r>  0.0018  0.0307  0.0000 </r>
        <r>  0.0018  0.0307  0.0000 </r>
       </set>
       <set comment="band 51">
        <r>  0.0010  0.0000  0.2365 </r>
        <r>  0.0010  0.0000  0.2365 </r>
        <r>  0.0000  0.0000  0.0069 </r>
        <r>  0.0000  0.0000  0.0070 </r>
        <r>  0.0011  0.0176  0.0000 </r>
        <r>  0.0011  0.0176  0.0000 </r>
        <r>  0.0000  0.0560  0.0000 </r>
        <r>  0.0000  0.0560  0.0000 </r>
        <r>  0.0000  0.0146  0.0000 </r>
        <r>  0.0000  0.0146  0.0000 </r>
       </set>
       <set comment="band 52">
        <r>  0.0010  0.0000  0.2365 </r>
        <r>  0.0010  0.0000  0.2365 </r>
        <r>  0.0000  0.0000  0.0070 </r>
        <r>  0.0000  0.0000  0.0070 </r>
        <r>  0.0000  0.0146  0.0000 </r>
        <r>  0.0000  0.0146  0.0000 </r>
        <r>  0.0000  0.0560  0.0000 </r>
        <r>  0.0000  0.0560  0.0000 </r>
        <r>  0.0011  0.0176  0.0000 </r>
        <r>  0.0011  0.0176  0.0000 </r>
       </set>
       <set comment="band 53">
        <r>  0.0177  0.0075  0.2199 </r>
        <r>  0.0177  0.0075  0.2199 </r>
        <r>  0.0000  0.0001  0.0003 </r>
        <r>  0.0000  0.0001  0.0003 </r>
        <r>  0.0000  0.0393  0.0000 </r>
        <r>  0.0000  0.0393  0.0000 </r>
        <r>  0.0000  0.0023  0.0000 </r>
        <r>  0.0000  0.0023  0.0000 </r>
        <r>  0.0139  0.0120  0.0000 </r>
        <r>  0.0139  0.0120  0.0000 </r>
       </set>
       <set comment="band 54">
        <r>  0.0177  0.0075  0.2199 </r>
        <r>  0.0177  0.0075  0.2199 </r>
        <r>  0.0000  0.0001  0.0003 </r>
        <r>  0.0000  0.0001  0.0003 </r>
        <r>  0.0139  0.0120  0.0000 </r>
        <r>  0.0138  0.0120  0.0000 </r>
        <r>  0.0000  0.0023  0.0000 </r>
        <r>  0.0000  0.0023  0.0000 </r>
        <r>  0.0000  0.0393  0.0000 </r>
        <r>  0.0000  0.0393  0.0000 </r>
       </set>
       <set comment="band 55">
        <r>  0.0000  0.0078  0.2593 </r>
        <r>  0.0000  0.0078  0.2593 </r>
        <r>  0.0000  0.0001  0.0174 </r>
        <r>  0.0001  0.0000  0.0013 </r>
        <r>  0.0074  0.0190  0.0000 </r>
        <r>  0.0075  0.0193  0.0000 </r>
        <r>  0.0008  0.0104  0.0000 </r>
        <r>  0.0008  0.0104  0.0000 </r>
        <r>  0.0072  0.0192  0.0000 </r>
        <r>  0.0072  0.0192  0.0000 </r>
       </set>
       <set comment="band 56">
        <r>  0.0000  0.0078  0.2590 </r>
        <r>  0.0000  0.0078  0.2590 </r>
        <r>  0.0001  0.0000  0.0013 </r>
        <r>  0.0000  0.0001  0.0179 </r>
        <r>  0.0072  0.0195  0.0000 </r>
        <r>  0.0071  0.0192  0.0000 </r>
        <r>  0.0008  0.0103  0.0000 </r>
        <r>  0.0008  0.0103  0.0000 </r>
        <r>  0.0074  0.0193  0.0000 </r>
        <r>  0.0074  0.0193  0.0000 </r>
       </set>
       <set comment="band 57">
        <r>  0.0000  0.0019  0.3143 </r>
        <r>  0.0000  0.0019  0.3143 </r>
        <r>  0.0000  0.0000  0.0081 </r>
        <r>  0.0000  0.0000  0.0000 </r>
        <r>  0.0000  0.0148  0.0000 </r>
        <r>  0.0000  0.0149  0.0000 </r>
        <r>  0.0000  0.0000  0.0000 </r>
        <r>  0.0000  0.0000  0.0000 </r>
        <r>  0.0000  0.0145  0.0000 </r>
        <r>  0.0000  0.0145  0.0000 </r>
       </set>
       <set comment="band 58">
        <r>  0.0000  0.0019  0.3143 </r>
        <r>  0.0000  0.0019  0.3143 </r>
        <r>  0.0000  0.0000  0.0000 </r>
        <r>  0.0000  0.0000  0.0080 </r>
        <r>  0.0000  0.0146  0.0000 </r>
        <r>  0.0000  0.0145  0.0000 </r>
        <r>  0.0000  0.0000  0.0000 </r>
        <r>  0.0000  0.0000  0.0000 </r>
        <r>  0.0000  0.0148  0.0000 </r>
        <r>  0.0000  0.0148  0.0000 </r>
       </set>
       <set comment="band 59">
        <r>  0.0000  0.0000  0.3056 </r>
        <r>  0.0000  0.0000  0.3055 </r>
        <r>  0.0000  0.0005  0.0040 </r>
        <r>  0.0000  0.0005  0.0040 </r>
        <r>  0.0000  0.0070  0.0000 </r>
        <r>  0.0000  0.0070  0.0000 </r>
        <r>  0.0000  0.0679  0.0000 </r>
        <r>  0.0000  0.0679  0.0000 </r>
        <r>  0.0000  0.0000  0.0000 </r>
        <r>  0.0000  0.0000  0.0000 </r>
       </set>
       <set comment="band 60">
        <r>  0.0000  0.0000  0.3055 </r>
        <r>  0.0000  0.0000  0.3056 </r>
        <r>  0.0000  0.0005  0.0040 </r>
        <r>  0.0000  0.0005  0.0040 </r>
        <r>  0.0000  0.0000  0.0000 </r>
        <r>  0.0000  0.0000  0.0000 </r>
        <r>  0.0000  0.0679  0.0000 </r>
        <r>  0.0000  0.0679  0.0000 </r>
        <r>  0.0000  0.0070  0.0000 </r>
        <r>  0.0000  0.0070  0.0000 </r>
       </set>
       <set comment="band 61">
        <r>  0.0000  0.0997  0.0224 </r>
        <r>  0.0000  0.0997  0.0224 </r>
        <r>  0.0000  0.0093  0.0078 </r>
        <r>  0.0099  0.0000  0.0036 </r>
        <r>  0.0031  0.0322  0.0000 </r>
        <r>  0.0033  0.0320  0.0000 </r>
        <r>  0.0264  0.0006  0.0000 </r>
        <r>  0.0264  0.0006  0.0000 </r>
        <r>  0.0032  0.0319  0.0000 </r>
        <r>  0.0032  0.0319  0.0000 </r>
       </set>
       <set comment="band 62">
        <r>  0.0000  0.0996  0.0226 </r>
        <r>  0.0000  0.0996  0.0226 </r>
        <r>  0.0100  0.0000  0.0035 </r>
        <r>  0.0000  0.0093  0.0079 </r>
        <r>  0.0033  0.0319  0.0000 </r>
        <r>  0.0031  0.0321  0.0000 </r>
        <r>  0.0264  0.0006  0.0000 </r>
        <r>  0.0264  0.0006  0.0000 </r>
        <r>  0.0032  0.0321  0.0000 </r>
        <r>  0.0032  0.0321  0.0000 </r>
       </set>
       <set comment="band 63">
        <r>  0.0991  0.0021  0.1322 </r>
        <r>  0.0991  0.0021  0.1322 </r>
        <r>  0.0000  0.0031  0.0011 </r>
        <r>  0.0000  0.0031  0.0011 </r>
        <r>  0.0000  0.0306  0.0000 </r>
        <r>  0.0000  0.0306  0.0000 </r>
        <r>  0.0000  0.0449  0.0000 </r>
        <r>  0.0000  0.0449  0.0000 </r>
        <r>  0.0079  0.0025  0.0000 </r>
        <r>  0.0079  0.0025  0.0000 </r>
       </set>
       <set comment="band 64">
        <r>  0.0991  0.0021  0.1322 </r>
        <r>  0.0991  0.0021  0.1322 </r>
        <r>  0.0000  0.0031  0.0011 </r>
        <r>  0.0000  0.0031  0.0011 </r>
        <r>  0.0079  0.0025  0.0000 </r>
        <r>  0.0079  0.0025  0.0000 </r>
        <r>  0.0000  0.0449  0.0000 </r>
        <r>  0.0000  0.0449  0.0000 </r>
        <r>  0.0000  0.0306  0.0000 </r>
        <r>  0.0000  0.0306  0.0000 </r>
       </set>
       <set comment="band 65">
        <r>  0.0276  0.1165  0.0203 </r>
        <r>  0.0276  0.1165  0.0203 </r>
        <r>  0.0000  0.0190  0.0260 </r>
        <r>  0.0000  0.0187  0.0259 </r>
        <r>  0.0133  0.0390  0.0000 </r>
        <r>  0.0133  0.0390  0.0000 </r>
        <r>  0.0000  0.0010  0.0000 </r>
        <r>  0.0000  0.0010  0.0000 </r>
        <r>  0.0000  0.0159  0.0000 </r>
        <r>  0.0000  0.0159  0.0000 </r>
       </set>
       <set comment="band 66">
        <r>  0.0276  0.1165  0.0203 </r>
        <r>  0.0276  0.1165  0.0203 </r>
        <r>  0.0000  0.0190  0.0258 </r>
        <r>  0.0000  0.0187  0.0261 </r>
        <r>  0.0000  0.0159  0.0000 </r>
        <r>  0.0000  0.0159  0.0000 </r>
        <r>  0.0000  0.0010  0.0000 </r>
        <r>  0.0000  0.0010  0.0000 </r>
        <r>  0.0133  0.0390  0.0000 </r>
        <r>  0.0133  0.0390  0.0000 </r>
       </set>
       <set comment="band 67">
        <r>  0.0000  0.0002  0.0003 </r>
        <r>  0.0000  0.0002  0.0003 </r>
        <r>  0.1067  0.0000  0.0008 </r>
        <r>  0.0000  0.0466  0.0031 </r>
        <r>  0.0016  0.0214  0.0000 </r>
        <r>  0.0016  0.0211  0.0000 </r>
        <r>  0.0123  0.0000  0.0000 </r>
        <r>  0.0123  0.0000  0.0000 </r>
        <r>  0.0016  0.0214  0.0000 </r>
        <r>  0.0016  0.0214  0.0000 </r>
       </set>
       <set comment="band 68">
        <r>  0.0000  0.0001  0.0002 </r>
        <r>  0.0000  0.0001  0.0002 </r>
        <r>  0.0000  0.0468  0.0030 </r>
        <r>  0.1055  0.0000  0.0008 </r>
        <r>  0.0016  0.0211  0.0000 </r>
        <r>  0.0016  0.0214  0.0000 </r>
        <r>  0.0123  0.0000  0.0000 </r>
        <r>  0.0123  0.0000  0.0000 </r>
        <r>  0.0016  0.0211  0.0000 </r>
        <r>  0.0016  0.0211  0.0000 </r>
       </set>
       <set comment="band 69">
        <r>  0.0000  0.0000  0.0119 </r>
        <r>  0.0000  0.0000  0.0119 </r>
        <r>  0.0000  0.0512  0.0346 </r>
        <r>  0.0000  0.0516  0.0343 </r>
        <r>  0.0000  0.0000  0.0000 </r>
        <r>  0.0000  0.0000  0.0000 </r>
        <r>  0.0000  0.0007  0.0000 </r>
        <r>  0.0000  0.0007  0.0000 </r>
        <r>  0.0000  0.0517  0.0000 </r>
        <r>  0.0000  0.0517  0.0000 </r>
       </set>
       <set comment="band 70">
        <r>  0.0000  0.0000  0.0119 </r>
        <r>  0.0000  0.0000  0.0119 </r>
        <r>  0.0000  0.0519  0.0345 </r>
        <r>  0.0000  0.0510  0.0343 </r>
        <r>  0.0000  0.0517  0.0000 </r>
        <r>  0.0000  0.0517  0.0000 </r>
        <r>  0.0000  0.0007  0.0000 </r>
        <r>  0.0000  0.0007  0.0000 </r>
        <r>  0.0000  0.0000  0.0000 </r>
        <r>  0.0000  0.0000  0.0000 </r>
       </set>
       <set comment="band 71">
        <r>  0.0000  0.1830  0.0018 </r>
        <r>  0.0000  0.1830  0.0018 </r>
        <r>  0.0000  0.0000  0.0576 </r>
        <r>  0.0000  0.0000  0.0000 </r>
        <r>  0.0000  0.0148  0.0000 </r>
        <r>  0.0000  0.0149  0.0000 </r>
        <r>  0.0000  0.0000  0.0000 </r>
        <r>  0.0000  0.0000  0.0000 </r>
        <r>  0.0000  0.0152  0.0000 </r>
        <r>  0.0000  0.0152  0.0000 </r>
       </set>
       <set comment="band 72">
        <r>  0.0000  0.1832  0.0019 </r>
        <r>  0.0000  0.1832  0.0019 </r>
        <r>  0.0000  0.0000  0.0000 </r>
        <r>  0.0000  0.0000  0.0573 </r>
        <r>  0.0000  0.0152  0.0000 </r>
        <r>  0.0000  0.0152  0.0000 </r>
        <r>  0.0000  0.0000  0.0000 </r>
        <r>  0.0000  0.0000  0.0000 </r>
        <r>  0.0000  0.0149  0.0000 </r>
        <r>  0.0000  0.0149  0.0000 </r>
       </set>
      </set>
     </set>
    </set>
   </array>
  </projected>
 </calculation>
 <structure name="finalpos" >
  <crystal>
   <varray name="basis" >
    <v>       0.00000000       3.94419668       3.94419668 </v>
    <v>       3.94419668       0.00000000       3.94419668 </v>
    <v>       3.94419668       3.94419668       0.00000000 </v>
   </varray>
   <i name="volume">    122.71727027 </i>
   <varray name="rec_basis" >
    <v>      -0.12676853       0.12676853       0.12676853 </v>
    <v>       0.12676853      -0.12676853       0.12676853 </v>
    <v>       0.12676853       0.12676853      -0.12676853 </v>
   </varray>
  </crystal>
  <varray name="positions" >
   <v>       0.00000000       0.00000000       0.00000000 </v>
   <v>       0.50000000       0.50000000       0.50000000 </v>
   <v>       0.25000000       0.25000000       0.25000000 </v>
   <v>       0.75000000       0.75000000       0.75000000 </v>
   <v>      -0.00038031      -0.00038031       0.50038031 </v>
   <v>       0.50000000       0.50000000       0.00000000 </v>
   <v>       0.00000000       0.50000000       0.00000000 </v>
   <v>       0.50000000       0.00000000       0.50000000 </v>
   <v>       0.50000000       0.00000000       0.00000000 </v>
   <v>       0.00000000       0.50000000       0.50000000 </v>
  </varray>
 </structure>
</modeling>
