 Entering Gaussian System, Link 0=g09
 Initial command:
 /usr/local/gaussian/g09.d01.em64t.legacy.linda/g09/l1.exe "/tmp/rdj3/g09-9389/Gau-16846.inp" -scrdir="/tmp/rdj3/g09-9389/"
 Entering Link 1 = /usr/local/gaussian/g09.d01.em64t.legacy.linda/g09/l1.exe PID=     16847.
  
 Copyright (c) 1988,1990,1992,1993,1995,1998,2003,2009,2013,
            Gaussian, Inc.  All Rights Reserved.
  
 This is part of the Gaussian(R) 09 program.  It is based on
 the Gaussian(R) 03 system (copyright 2003, Gaussian, Inc.),
 the Gaussian(R) 98 system (copyright 1998, Gaussian, Inc.),
 the Gaussian(R) 94 system (copyright 1995, Gaussian, Inc.),
 the Gaussian 92(TM) system (copyright 1992, Gaussian, Inc.),
 the Gaussian 90(TM) system (copyright 1990, Gaussian, Inc.),
 the Gaussian 88(TM) system (copyright 1988, Gaussian, Inc.),
 the Gaussian 86(TM) system (copyright 1986, Carnegie Mellon
 University), and the Gaussian 82(TM) system (copyright 1983,
 Carnegie Mellon University). Gaussian is a federally registered
 trademark of Gaussian, Inc.
  
 This software contains proprietary and confidential information,
 including trade secrets, belonging to Gaussian, Inc.
  
 This software is provided under written license and may be
 used, copied, transmitted, or stored only in accord with that
 written license.
  
 The following legend is applicable only to US Government
 contracts under FAR:
  
                    RESTRICTED RIGHTS LEGEND
  
 Use, reproduction and disclosure by the US Government is
 subject to restrictions as set forth in subparagraphs (a)
 and (c) of the Commercial Computer Software - Restricted
 Rights clause in FAR 52.227-19.
  
 Gaussian, Inc.
 340 Quinnipiac St., Bldg. 40, Wallingford CT 06492
  
  
 ---------------------------------------------------------------
 Warning -- This program may not be used in any manner that
 competes with the business of Gaussian, Inc. or will provide
 assistance to any competitor of Gaussian, Inc.  The licensee
 of this program is prohibited from giving any competitor of
 Gaussian, Inc. access to this program.  By using this program,
 the user acknowledges that Gaussian, Inc. is engaged in the
 business of creating and licensing software in the field of
 computational chemistry and represents and warrants to the
 licensee that it is not a competitor of Gaussian, Inc. and that
 it will not use this program in any manner prohibited above.
 ---------------------------------------------------------------
  

 Cite this work as:
 Gaussian 09, Revision D.01,
 M. J. Frisch, G. W. Trucks, H. B. Schlegel, G. E. Scuseria, 
 M. A. Robb, J. R. Cheeseman, G. Scalmani, V. Barone, B. Mennucci, 
 G. A. Petersson, H. Nakatsuji, M. Caricato, X. Li, H. P. Hratchian, 
 A. F. Izmaylov, J. Bloino, G. Zheng, J. L. Sonnenberg, M. Hada, 
 M. Ehara, K. Toyota, R. Fukuda, J. Hasegawa, M. Ishida, T. Nakajima, 
 Y. Honda, O. Kitao, H. Nakai, T. Vreven, J. A. Montgomery, Jr., 
 J. E. Peralta, F. Ogliaro, M. Bearpark, J. J. Heyd, E. Brothers, 
 K. N. Kudin, V. N. Staroverov, T. Keith, R. Kobayashi, J. Normand, 
 K. Raghavachari, A. Rendell, J. C. Burant, S. S. Iyengar, J. Tomasi, 
 M. Cossi, N. Rega, J. M. Millam, M. Klene, J. E. Knox, J. B. Cross, 
 V. Bakken, C. Adamo, J. Jaramillo, R. Gomperts, R. E. Stratmann, 
 O. Yazyev, A. J. Austin, R. Cammi, C. Pomelli, J. W. Ochterski, 
 R. L. Martin, K. Morokuma, V. G. Zakrzewski, G. A. Voth, 
 P. Salvador, J. J. Dannenberg, S. Dapprich, A. D. Daniels, 
 O. Farkas, J. B. Foresman, J. V. Ortiz, J. Cioslowski, 
 and D. J. Fox, Gaussian, Inc., Wallingford CT, 2013.
 
 ******************************************
 Gaussian 09:  EM64L-G09RevD.01 24-Apr-2013
                16-May-2014 
 ******************************************
 %Nproc=8
 Will use up to    8 processors via shared memory.
 %mem=24000000
 ----------------------------
 #SVWN/TZVP opt=z-matrix freq
 ----------------------------
 1/10=7,14=-1,18=40,26=3,38=1/1,3;
 2/12=2,17=6,18=5,29=3,40=1/2;
 3/5=19,7=101,11=2,16=1,25=1,30=1,71=1,74=205/1,2,3;
 4//1;
 5/5=2,38=5/2;
 6/7=2,8=2,9=2,10=2,28=1/1;
 7/29=1/1,2,3,16;
 1/10=7,14=-1,18=40,26=3/3(2);
 2/29=3/2;
 99//99;
 2/29=3/2;
 3/5=19,7=101,11=2,16=1,25=1,30=1,71=1,74=205/1,2,3;
 4/5=5,16=3,69=1/1;
 5/5=2,38=5/2;
 7//1,2,3,16;
 1/14=-1,18=40,26=3/3(-5);
 2/29=3/2;
 6/7=2,8=2,9=2,10=2,19=2,28=1/1;
 99/9=1/99;
 ------------------------------------------------------
 propyl nitrite C3H7NO2 casno=543679 method=53 basis=32
 ------------------------------------------------------
 Symbolic Z-matrix:
 Charge =  0 Multiplicity = 1
 1                    -0.67238   2.12836   0.06931 
 7                     1.50076  -0.03439   0.42822 
 8                     2.37222  -0.54751  -0.14542 
 8                     0.5493    0.5695   -0.47911 
 6                    -1.78245   0.2738   -0.14731 
 1                    -2.00703   0.48703  -1.20561 
 1                    -2.63429   0.6515    0.44073 
 6                    -0.5596    1.04742   0.25828 
 1                    -0.32709   0.89096   1.32908 
 1                    -2.48486  -1.77611  -0.23037 
 1                    -1.37428  -1.43358   1.11328 
 1                    -0.75415  -1.57877  -0.5402 
 6                    -1.59519  -1.20531   0.05944 
 

 GradGradGradGradGradGradGradGradGradGradGradGradGradGradGradGradGradGrad
 Berny optimization.
 Initialization pass.
 No Z-matrix variables, so optimization will use Cartesian coordinates.
 Trust Radius=3.00D-01 FncErr=1.00D-07 GrdErr=1.00D-06
 Number of steps in this run=     49 maximum allowed number of steps=    100.
 GradGradGradGradGradGradGradGradGradGradGradGradGradGradGradGradGradGrad

 ---------------------------------------------------------------------------------------------------
                            Z-MATRIX (ANGSTROMS AND DEGREES)
   CD    Cent   Atom    N1       Length/X        N2       Alpha/Y        N3        Beta/Z          J
 ---------------------------------------------------------------------------------------------------
      1      1  H        0  -0.672382          2.128358          0.069305
      2      2  N        0   1.500760         -0.034392          0.428219
      3      3  O        0   2.372224         -0.547510         -0.145417
      4      4  O        0   0.549301          0.569501         -0.479113
      5      5  C        0  -1.782449          0.273799         -0.147308
      6      6  H        0  -2.007027          0.487031         -1.205608
      7      7  H        0  -2.634294          0.651495          0.440730
      8      8  C        0  -0.559597          1.047418          0.258284
      9      9  H        0  -0.327085          0.890964          1.329077
     10     10  H        0  -2.484859         -1.776110         -0.230368
     11     11  H        0  -1.374282         -1.433583          1.113283
     12     12  H        0  -0.754146         -1.578774         -0.540201
     13     13  C        0  -1.595194         -1.205311          0.059439
 ---------------------------------------------------------------------------------------------------
                         Z-Matrix orientation:                         
 ---------------------------------------------------------------------
 Center     Atomic      Atomic             Coordinates (Angstroms)
 Number     Number       Type             X           Y           Z
 ---------------------------------------------------------------------
      1          1           0       -0.672382    2.128358    0.069305
      2          7           0        1.500760   -0.034392    0.428219
      3          8           0        2.372224   -0.547510   -0.145417
      4          8           0        0.549301    0.569501   -0.479113
      5          6           0       -1.782449    0.273799   -0.147308
      6          1           0       -2.007027    0.487031   -1.205608
      7          1           0       -2.634294    0.651495    0.440730
      8          6           0       -0.559597    1.047418    0.258284
      9          1           0       -0.327085    0.890964    1.329077
     10          1           0       -2.484859   -1.776110   -0.230368
     11          1           0       -1.374282   -1.433583    1.113283
     12          1           0       -0.754146   -1.578774   -0.540201
     13          6           0       -1.595194   -1.205311    0.059439
 ---------------------------------------------------------------------
                    Distance matrix (angstroms):
                    1          2          3          4          5
     1  H    0.000000
     2  N    3.086884   0.000000
     3  O    4.059064   1.162668   0.000000
     4  O    2.055069   1.446794   2.163820   0.000000
     5  C    2.172224   3.347488   4.235075   2.373730   0.000000
     6  H    2.469946   3.904592   4.622999   2.658836   1.102679
     7  H    2.483582   4.191571   5.181352   3.314832   1.101854
     8  C    1.103116   2.333294   3.361896   1.414855   1.502783
     9  H    1.799277   2.238045   3.395528   2.034930   2.163028
    10  H    4.315061   4.399145   5.010781   3.843162   2.168503
    11  H    3.777562   3.270002   4.050402   3.201288   2.161213
    12  H    3.757793   2.899578   3.315652   2.513522   2.154947
    13  C    3.459050   3.330463   4.026794   2.835287   1.505183
                    6          7          8          9         10
     6  H    0.000000
     7  H    1.769447   0.000000
     8  C    2.133557   2.120002   0.000000
     9  H    3.067572   2.483892   1.106859   0.000000
    10  H    2.510224   2.523087   3.452206   3.768440   0.000000
    11  H    3.076748   2.527352   2.747745   2.558653   1.776543
    12  H    2.505998   3.077545   2.751783   3.126689   1.769267
    13  C    2.152666   2.161675   2.487326   2.759429   1.096040
                   11         12         13
    11  H    0.000000
    12  H    1.771908   0.000000
    13  C    1.100680   1.098364   0.000000
 Stoichiometry    C3H7NO2
 Framework group  C1[X(C3H7NO2)]
 Deg. of freedom    33
 Full point group                 C1      NOp   1
 Largest Abelian subgroup         C1      NOp   1
 Largest concise Abelian subgroup C1      NOp   1
                         Standard orientation:                         
 ---------------------------------------------------------------------
 Center     Atomic      Atomic             Coordinates (Angstroms)
 Number     Number       Type             X           Y           Z
 ---------------------------------------------------------------------
      1          1           0        0.672383   -2.128358    0.069305
      2          7           0       -1.500760    0.034392    0.428219
      3          8           0       -2.372224    0.547510   -0.145417
      4          8           0       -0.549301   -0.569501   -0.479113
      5          6           0        1.782449   -0.273799   -0.147308
      6          1           0        2.007027   -0.487031   -1.205608
      7          1           0        2.634294   -0.651494    0.440730
      8          6           0        0.559597   -1.047418    0.258284
      9          1           0        0.327085   -0.890964    1.329077
     10          1           0        2.484859    1.776111   -0.230368
     11          1           0        1.374282    1.433583    1.113283
     12          1           0        0.754146    1.578774   -0.540201
     13          6           0        1.595194    1.205311    0.059439
 ---------------------------------------------------------------------
 Rotational constants (GHZ):      7.4389194      2.1904841      1.8495165
 Standard basis: TZVP (5D, 7F)
 There are   162 symmetry adapted cartesian basis functions of A   symmetry.
 There are   156 symmetry adapted basis functions of A   symmetry.
   156 basis functions,   266 primitive gaussians,   162 cartesian basis functions
    24 alpha electrons       24 beta electrons
       nuclear repulsion energy       244.3225879742 Hartrees.
 NAtoms=   13 NActive=   13 NUniq=   13 SFac= 1.00D+00 NAtFMM=   60 NAOKFM=F Big=F
 Integral buffers will be    131072 words long.
 Raffenetti 2 integral format.
 Two-electron integral symmetry is turned on.
 One-electron integrals computed using PRISM.
 PrsmSu:  requested number of processors reduced to:   7 ShMem   1 Linda.
 NBasis=   156 RedAO= T EigKep=  3.02D-04  NBF=   156
 NBsUse=   156 1.00D-06 EigRej= -1.00D+00 NBFU=   156
 ExpMin= 9.52D-02 ExpMax= 2.70D+04 ExpMxC= 9.22D+02 IAcc=2 IRadAn=         4 AccDes= 0.00D+00
 Harris functional with IExCor=  205 and IRadAn=       4 diagonalized for initial guess.
 HarFok:  IExCor=  205 AccDes= 0.00D+00 IRadAn=         4 IDoV= 1 UseB2=F ITyADJ=14
 ICtDFT=  3500011 ScaDFX=  1.000000  1.000000  1.000000  1.000000
 FoFCou: FMM=F IPFlag=           0 FMFlag=      100000 FMFlg1=           0
         NFxFlg=           0 DoJE=T BraDBF=F KetDBF=T FulRan=T
         wScrn=  0.000000 ICntrl=     500 IOpCl=  0 I1Cent=   200000004 NGrid=           0
         NMat0=    1 NMatS0=      1 NMatT0=    0 NMatD0=    1 NMtDS0=    0 NMtDT0=    0
 Petite list used in FoFCou.
 Requested convergence on RMS density matrix=1.00D-08 within 128 cycles.
 Requested convergence on MAX density matrix=1.00D-06.
 Requested convergence on             energy=1.00D-06.
 No special actions if energy rises.
 Integral accuracy reduced to 1.0D-05 until final iterations.
 EnCoef did     4 forward-backward iterations
 EnCoef did     2 forward-backward iterations
 EnCoef did     6 forward-backward iterations
 Initial convergence to 1.0D-05 achieved.  Increase integral accuracy.
 SCF Done:  E(RS-VWN) =  -322.090947943     A.U. after   18 cycles
            NFock= 18  Conv=0.35D-08     -V/T= 2.0089

 **********************************************************************

            Population analysis using the SCF density.

 **********************************************************************

 Orbital symmetries:
       Occupied  (A) (A) (A) (A) (A) (A) (A) (A) (A) (A) (A) (A)
                 (A) (A) (A) (A) (A) (A) (A) (A) (A) (A) (A) (A)
       Virtual   (A) (A) (A) (A) (A) (A) (A) (A) (A) (A) (A) (A)
                 (A) (A) (A) (A) (A) (A) (A) (A) (A) (A) (A) (A)
                 (A) (A) (A) (A) (A) (A) (A) (A) (A) (A) (A) (A)
                 (A) (A) (A) (A) (A) (A) (A) (A) (A) (A) (A) (A)
                 (A) (A) (A) (A) (A) (A) (A) (A) (A) (A) (A) (A)
                 (A) (A) (A) (A) (A) (A) (A) (A) (A) (A) (A) (A)
                 (A) (A) (A) (A) (A) (A) (A) (A) (A) (A) (A) (A)
                 (A) (A) (A) (A) (A) (A) (A) (A) (A) (A) (A) (A)
                 (A) (A) (A) (A) (A) (A) (A) (A) (A) (A) (A) (A)
                 (A) (A) (A) (A) (A) (A) (A) (A) (A) (A) (A) (A)
                 (A) (A) (A) (A) (A) (A) (A) (A) (A) (A) (A) (A)
 The electronic state is 1-A.
 Alpha  occ. eigenvalues --  -18.70873 -18.69347 -14.05136  -9.86062  -9.81111
 Alpha  occ. eigenvalues --   -9.79535  -1.16180  -0.99594  -0.74922  -0.67131
 Alpha  occ. eigenvalues --   -0.60802  -0.55836  -0.52130  -0.49883  -0.47277
 Alpha  occ. eigenvalues --   -0.44609  -0.42891  -0.39910  -0.36557  -0.35770
 Alpha  occ. eigenvalues --   -0.33854  -0.32015  -0.29529  -0.26080
 Alpha virt. eigenvalues --   -0.14958  -0.00573   0.01352   0.02816   0.03357
 Alpha virt. eigenvalues --    0.04601   0.05766   0.07482   0.08524   0.09248
 Alpha virt. eigenvalues --    0.10625   0.14287   0.14858   0.16065   0.17927
 Alpha virt. eigenvalues --    0.18971   0.21602   0.24130   0.26524   0.28164
 Alpha virt. eigenvalues --    0.29666   0.32144   0.33632   0.35496   0.35998
 Alpha virt. eigenvalues --    0.36787   0.37695   0.38077   0.39953   0.40224
 Alpha virt. eigenvalues --    0.41338   0.42624   0.43165   0.44232   0.44373
 Alpha virt. eigenvalues --    0.48200   0.49338   0.53803   0.56309   0.60033
 Alpha virt. eigenvalues --    0.63578   0.64822   0.74054   0.81753   1.02218
 Alpha virt. eigenvalues --    1.11125   1.17560   1.17938   1.19322   1.20139
 Alpha virt. eigenvalues --    1.23285   1.24031   1.26708   1.28851   1.32075
 Alpha virt. eigenvalues --    1.33061   1.34530   1.40775   1.45593   1.49634
 Alpha virt. eigenvalues --    1.53278   1.55553   1.57374   1.61106   1.66487
 Alpha virt. eigenvalues --    1.67581   1.69668   1.70591   1.72508   1.73276
 Alpha virt. eigenvalues --    1.75274   1.75477   1.80074   1.81855   1.83983
 Alpha virt. eigenvalues --    1.88004   1.90876   1.93781   1.95171   1.99865
 Alpha virt. eigenvalues --    2.05123   2.05585   2.10849   2.14591   2.17128
 Alpha virt. eigenvalues --    2.21724   2.28255   2.29294   2.31276   2.34209
 Alpha virt. eigenvalues --    2.37676   2.41664   2.42233   2.44736   2.46012
 Alpha virt. eigenvalues --    2.46649   2.47757   2.50485   2.53076   2.53882
 Alpha virt. eigenvalues --    2.56165   2.59405   2.61002   2.61973   2.64042
 Alpha virt. eigenvalues --    2.69828   2.75946   2.80993   2.85996   2.89954
 Alpha virt. eigenvalues --    2.93033   2.96817   3.02322   3.03928   3.06229
 Alpha virt. eigenvalues --    3.17811   3.20999   3.21427   3.25363   3.27265
 Alpha virt. eigenvalues --    3.30371   3.34474   3.42402   3.85874   4.09672
 Alpha virt. eigenvalues --    4.42643  21.79169  21.90802  21.96581  31.27148
 Alpha virt. eigenvalues --   43.20602  43.40335
          Condensed to atoms (all electrons):
               1          2          3          4          5          6
     1  H    0.510029   0.002872  -0.000453  -0.031428  -0.079398  -0.006047
     2  N    0.002872   6.863658   0.256998  -0.137535  -0.005094  -0.000309
     3  O   -0.000453   0.256998   7.888818  -0.093944   0.003123   0.000101
     4  O   -0.031428  -0.137535  -0.093944   8.349139  -0.130566  -0.002121
     5  C   -0.079398  -0.005094   0.003123  -0.130566   5.622853   0.412706
     6  H   -0.006047  -0.000309   0.000101  -0.002121   0.412706   0.517663
     7  H    0.000927   0.000727  -0.000025   0.008333   0.364926  -0.021448
     8  C    0.415690  -0.055848   0.005849   0.212130   0.133484  -0.037146
     9  H   -0.028521   0.029581  -0.000154  -0.069583  -0.035652   0.008869
    10  H   -0.000463   0.000475   0.000054  -0.000082  -0.019290  -0.003949
    11  H   -0.000247   0.002543   0.000206  -0.007016  -0.041824   0.008820
    12  H   -0.000441   0.007691   0.001201   0.003985  -0.042485  -0.004135
    13  C    0.021778  -0.007393  -0.004027   0.048596   0.091280  -0.055248
               7          8          9         10         11         12
     1  H    0.000927   0.415690  -0.028521  -0.000463  -0.000247  -0.000441
     2  N    0.000727  -0.055848   0.029581   0.000475   0.002543   0.007691
     3  O   -0.000025   0.005849  -0.000154   0.000054   0.000206   0.001201
     4  O    0.008333   0.212130  -0.069583  -0.000082  -0.007016   0.003985
     5  C    0.364926   0.133484  -0.035652  -0.019290  -0.041824  -0.042485
     6  H   -0.021448  -0.037146   0.008869  -0.003949   0.008820  -0.004135
     7  H    0.532238  -0.033380  -0.000616  -0.003534  -0.007062   0.008094
     8  C   -0.033380   5.314921   0.402896   0.009280   0.005044  -0.019567
     9  H   -0.000616   0.402896   0.527738   0.000449   0.009492   0.002674
    10  H   -0.003534   0.009280   0.000449   0.502208  -0.019855  -0.017709
    11  H   -0.007062   0.005044   0.009492  -0.019855   0.528880  -0.028773
    12  H    0.008094  -0.019567   0.002674  -0.017709  -0.028773   0.501974
    13  C   -0.024381  -0.051583  -0.033689   0.374687   0.385901   0.404923
              13
     1  H    0.021778
     2  N   -0.007393
     3  O   -0.004027
     4  O    0.048596
     5  C    0.091280
     6  H   -0.055248
     7  H   -0.024381
     8  C   -0.051583
     9  H   -0.033689
    10  H    0.374687
    11  H    0.385901
    12  H    0.404923
    13  C    5.371156
 Mulliken charges:
               1
     1  H    0.195702
     2  N    0.041633
     3  O   -0.057747
     4  O   -0.149909
     5  C   -0.274061
     6  H    0.182246
     7  H    0.175200
     8  C   -0.301770
     9  H    0.186518
    10  H    0.177730
    11  H    0.163893
    12  H    0.182567
    13  C   -0.522001
 Sum of Mulliken charges =   0.00000
 Mulliken charges with hydrogens summed into heavy atoms:
               1
     2  N    0.041633
     3  O   -0.057747
     4  O   -0.149909
     5  C    0.083385
     8  C    0.080450
    13  C    0.002188
 Electronic spatial extent (au):  <R**2>=            664.5275
 Charge=              0.0000 electrons
 Dipole moment (field-independent basis, Debye):
    X=              2.2024    Y=             -0.7687    Z=              0.7063  Tot=              2.4373
 Quadrupole moment (field-independent basis, Debye-Ang):
   XX=            -38.3248   YY=            -35.3794   ZZ=            -37.9097
   XY=              0.3476   XZ=             -0.4789   YZ=             -0.6234
 Traceless Quadrupole moment (field-independent basis, Debye-Ang):
   XX=             -1.1201   YY=              1.8253   ZZ=             -0.7051
   XY=              0.3476   XZ=             -0.4789   YZ=             -0.6234
 Octapole moment (field-independent basis, Debye-Ang**2):
  XXX=             -4.1898  YYY=             -3.6573  ZZZ=             -1.6491  XYY=             -3.1642
  XXY=             -3.3879  XXZ=             -0.2797  XZZ=             -2.1981  YZZ=              0.0500
  YYZ=             -0.6947  XYZ=             -0.1910
 Hexadecapole moment (field-independent basis, Debye-Ang**3):
 XXXX=           -588.5473 YYYY=           -197.1728 ZZZZ=            -77.9802 XXXY=              7.1133
 XXXZ=              0.0705 YYYX=             -7.2533 YYYZ=              0.1194 ZZZX=              1.7651
 ZZZY=              1.1357 XXYY=           -128.5593 XXZZ=           -110.7335 YYZZ=            -47.1279
 XXYZ=             -1.4670 YYXZ=             -0.1646 ZZXY=             -2.8608
 N-N= 2.443225879742D+02 E-N=-1.243005550680D+03  KE= 3.192422295773D+02
 PrsmSu:  requested number of processors reduced to:   7 ShMem   1 Linda.
 Calling FoFJK, ICntrl=      2527 FMM=F ISym2X=0 I1Cent= 0 IOpClX= 0 NMat=1 NMatS=1 NMatT=0.
 ***** Axes restored to original set *****
 -------------------------------------------------------------------
 Center     Atomic                   Forces (Hartrees/Bohr)
 Number     Number              X              Y              Z
 -------------------------------------------------------------------
      1        1           0.001089206   -0.000860296   -0.000625630
      2        7          -0.004416302    0.000641530   -0.002672272
      3        8           0.002958454    0.000114949   -0.001057151
      4        8           0.004544215    0.000896822    0.003347785
      5        6          -0.000209356    0.000096037   -0.000377410
      6        1          -0.000367109    0.000251797    0.000106156
      7        1          -0.000849349    0.000277736    0.000004863
      8        6          -0.000452051   -0.000933412   -0.000049087
      9        1          -0.001142742    0.000741306    0.000281123
     10        1          -0.001774430   -0.000688803   -0.000066254
     11        1           0.000087639   -0.000386814    0.000950334
     12        1           0.000740538   -0.000403371   -0.000709219
     13        6          -0.000208710    0.000252519    0.000866761
 -------------------------------------------------------------------
 Cartesian Forces:  Max     0.004544215 RMS     0.001457921

 GradGradGradGradGradGradGradGradGradGradGradGradGradGradGradGradGradGrad
 Berny optimization.
 Search for a local minimum.
 Step number   1 out of a maximum of   49
 All quantities printed in internal units (Hartrees-Bohrs-Radians)
 Second derivative matrix not updated -- first step.
 ITU=  0
     Eigenvalues ---    0.00136   0.00267   0.00681   0.00775   0.01879
     Eigenvalues ---    0.02306   0.03522   0.04746   0.05181   0.05449
     Eigenvalues ---    0.05595   0.07013   0.07739   0.09040   0.10867
     Eigenvalues ---    0.12276   0.13251   0.13837   0.16675   0.17820
     Eigenvalues ---    0.20786   0.28026   0.42020   0.59169   0.74024
     Eigenvalues ---    0.78886   0.86778   0.88805   0.96427   1.06228
     Eigenvalues ---    1.08617   1.16221   2.58319
 RFO step:  Lambda=-1.48513209D-03 EMin= 1.36360337D-03
 Linear search not attempted -- first point.
 Maximum step size (   0.300) exceeded in Quadratic search.
    -- Step size scaled by   0.530
 TrRot=  0.011153  0.009653 -0.002715 -1.231485  0.002761  1.236431
 Variable       Old X    -DE/DX   Delta X   Delta X   Delta X     New X
                                 (Linear)    (Quad)   (Total)
    X1       -1.27062   0.00109   0.00000   0.03787   0.02939  -1.24123
    Y1        4.02201  -0.00086   0.00000  -0.02540  -0.02224   3.99977
    Z1        0.13097  -0.00063   0.00000  -0.00044   0.00839   0.13935
    X2        2.83603  -0.00442   0.00000  -0.01804  -0.00536   2.83067
    Y2       -0.06499   0.00064   0.00000  -0.10267  -0.08115  -0.14614
    Z2        0.80922  -0.00267   0.00000  -0.01130  -0.01700   0.79221
    X3        4.48285   0.00296   0.00000   0.13159   0.14677   4.62962
    Y3       -1.03464   0.00011   0.00000   0.15404   0.18729  -0.84736
    Z3       -0.27480  -0.00106   0.00000  -0.01579  -0.02499  -0.29978
    X4        1.03803   0.00454   0.00000   0.01891   0.02403   1.06206
    Y4        1.07620   0.00090   0.00000  -0.02537  -0.00817   1.06803
    Z4       -0.90539   0.00335   0.00000   0.00945   0.00852  -0.89687
    X5       -3.36834  -0.00021   0.00000  -0.00836  -0.00001  -3.36835
    Y5        0.51741   0.00010   0.00000   0.00306  -0.00325   0.51416
    Z5       -0.27837  -0.00038   0.00000  -0.01166  -0.00995  -0.28833
    X6       -3.79273  -0.00037   0.00000   0.01061   0.01516  -3.77757
    Y6        0.92036   0.00025   0.00000  -0.00219  -0.00529   0.91507
    Z6       -2.27827   0.00011   0.00000  -0.01673  -0.01361  -2.29188
    X7       -4.97809  -0.00085   0.00000  -0.00659  -0.00092  -4.97901
    Y7        1.23115   0.00028   0.00000   0.03889   0.02177   1.25292
    Z7        0.83286   0.00000   0.00000  -0.02984  -0.02473   0.80813
    X8       -1.05749  -0.00045   0.00000   0.00982   0.01178  -1.04570
    Y8        1.97933  -0.00093   0.00000  -0.02687  -0.02370   1.95563
    Z8        0.48809  -0.00005   0.00000   0.00078   0.00410   0.49219
    X9       -0.61810  -0.00114   0.00000  -0.01610  -0.01081  -0.62891
    Y9        1.68368   0.00074   0.00000  -0.02809  -0.02816   1.65552
    Z9        2.51159   0.00028   0.00000   0.00606   0.00823   2.51982
   X10       -4.69570  -0.00177   0.00000  -0.09081  -0.06351  -4.75922
   Y10       -3.35636  -0.00069   0.00000   0.02697   0.01406  -3.34231
   Z10       -0.43533  -0.00007   0.00000   0.02612   0.01906  -0.41627
   X11       -2.59702   0.00009   0.00000  -0.07696  -0.05045  -2.64747
   Y11       -2.70908  -0.00039   0.00000   0.00703  -0.00205  -2.71113
   Z11        2.10380   0.00095   0.00000   0.02307   0.01572   2.11952
   X12       -1.42513   0.00074   0.00000  -0.07791  -0.05267  -1.47780
   Y12       -2.98345  -0.00040   0.00000  -0.04594  -0.04108  -3.02453
   Z12       -1.02083  -0.00071   0.00000   0.02424   0.01498  -1.00585
   X13       -3.01448  -0.00021   0.00000  -0.06599  -0.04341  -3.05789
   Y13       -2.27771   0.00025   0.00000  -0.00214  -0.00802  -2.28573
   Z13        0.11232   0.00087   0.00000   0.01715   0.01128   0.12360
         Item               Value     Threshold  Converged?
 Maximum Force            0.004544     0.000450     NO 
 RMS     Force            0.001458     0.000300     NO 
 Maximum Displacement     0.187289     0.001800     NO 
 RMS     Displacement     0.046349     0.001200     NO 
 Predicted change in Energy=-6.426842D-04
 GradGradGradGradGradGradGradGradGradGradGradGradGradGradGradGradGradGrad

                          Input orientation:                          
 ---------------------------------------------------------------------
 Center     Atomic      Atomic             Coordinates (Angstroms)
 Number     Number       Type             X           Y           Z
 ---------------------------------------------------------------------
      1          1           0       -0.656829    2.116586    0.073743
      2          7           0        1.497924   -0.077335    0.419220
      3          8           0        2.449892   -0.448401   -0.158639
      4          8           0        0.562019    0.565178   -0.474604
      5          6           0       -1.782452    0.272081   -0.152576
      6          1           0       -1.999004    0.484232   -1.212812
      7          1           0       -2.634780    0.663014    0.427642
      8          6           0       -0.553362    1.034874    0.260455
      9          1           0       -0.332805    0.876063    1.333433
     10          1           0       -2.518468   -1.768672   -0.220281
     11          1           0       -1.400981   -1.434666    1.121602
     12          1           0       -0.782020   -1.600512   -0.532271
     13          6           0       -1.618163   -1.209557    0.065408
 ---------------------------------------------------------------------
                    Distance matrix (angstroms):
                    1          2          3          4          5
     1  H    0.000000
     2  N    3.094448   0.000000
     3  O    4.035452   1.173820   0.000000
     4  O    2.047717   1.444875   2.165927   0.000000
     5  C    2.172659   3.348121   4.293235   2.384565   0.000000
     6  H    2.474114   3.899666   4.666236   2.666522   1.102726
     7  H    2.480002   4.198504   5.237639   3.323122   1.102699
     8  C    1.102573   2.338801   3.375690   1.415980   1.504364
     9  H    1.797417   2.257504   3.424016   2.041166   2.162058
    10  H    4.318262   4.404656   5.141159   3.873104   2.170479
    11  H    3.776660   3.277093   4.176237   3.224998   2.163801
    12  H    3.768255   2.902335   3.451407   2.549505   2.156765
    13  C    3.462292   3.334233   4.144711   2.862602   1.506572
                    6          7          8          9         10
     6  H    0.000000
     7  H    1.768407   0.000000
     8  C    2.136259   2.120974   0.000000
     9  H    3.068080   2.482929   1.106864   0.000000
    10  H    2.516057   2.519212   3.457256   3.766401   0.000000
    11  H    3.080469   2.530633   2.749302   2.554475   1.777917
    12  H    2.508056   3.078588   2.761514   3.133061   1.772250
    13  C    2.155878   2.161307   2.491850   2.758595   1.097624
                   11         12         13
    11  H    0.000000
    12  H    1.773672   0.000000
    13  C    1.101538   1.099637   0.000000
 Stoichiometry    C3H7NO2
 Framework group  C1[X(C3H7NO2)]
 Deg. of freedom    33
 Full point group                 C1      NOp   1
 Largest Abelian subgroup         C1      NOp   1
 Largest concise Abelian subgroup C1      NOp   1
                         Standard orientation:                         
 ---------------------------------------------------------------------
 Center     Atomic      Atomic             Coordinates (Angstroms)
 Number     Number       Type             X           Y           Z
 ---------------------------------------------------------------------
      1          1           0        0.629196   -2.121186    0.094290
      2          7           0       -1.483134    0.115570    0.426842
      3          8           0       -2.430677    0.498368   -0.150637
      4          8           0       -0.563266   -0.553074   -0.464461
      5          6           0        1.787636   -0.300179   -0.155504
      6          1           0        1.995475   -0.526920   -1.214464
      7          1           0        2.635202   -0.700973    0.424962
      8          6           0        0.546547   -1.035927    0.270501
      9          1           0        0.333777   -0.862313    1.342759
     10          1           0        2.560873    1.725830   -0.247001
     11          1           0        1.443448    1.426023    1.102986
     12          1           0        0.820234    1.586697   -0.549800
     13          6           0        1.651696    1.186356    0.048197
 ---------------------------------------------------------------------
 Rotational constants (GHZ):      7.6434044      2.1283774      1.8158271
 Standard basis: TZVP (5D, 7F)
 There are   162 symmetry adapted cartesian basis functions of A   symmetry.
 There are   156 symmetry adapted basis functions of A   symmetry.
   156 basis functions,   266 primitive gaussians,   162 cartesian basis functions
    24 alpha electrons       24 beta electrons
       nuclear repulsion energy       243.3591700055 Hartrees.
 NAtoms=   13 NActive=   13 NUniq=   13 SFac= 1.00D+00 NAtFMM=   60 NAOKFM=F Big=F
 Integral buffers will be    131072 words long.
 Raffenetti 2 integral format.
 Two-electron integral symmetry is turned on.
 One-electron integrals computed using PRISM.
 PrsmSu:  requested number of processors reduced to:   7 ShMem   1 Linda.
 NBasis=   156 RedAO= T EigKep=  3.02D-04  NBF=   156
 NBsUse=   156 1.00D-06 EigRej= -1.00D+00 NBFU=   156
 Initial guess from the checkpoint file:  "/tmp/rdj3/g09-9389/Gau-16847.chk"
 B after Tr=     0.000000    0.000000    0.000000
         Rot=    0.999956    0.007956   -0.001612    0.004720 Ang=   1.08 deg.
 ExpMin= 9.52D-02 ExpMax= 2.70D+04 ExpMxC= 9.22D+02 IAcc=2 IRadAn=         4 AccDes= 0.00D+00
 Harris functional with IExCor=  205 and IRadAn=       4 diagonalized for initial guess.
 HarFok:  IExCor=  205 AccDes= 0.00D+00 IRadAn=         4 IDoV= 1 UseB2=F ITyADJ=14
 ICtDFT=  3500011 ScaDFX=  1.000000  1.000000  1.000000  1.000000
 FoFCou: FMM=F IPFlag=           0 FMFlag=      100000 FMFlg1=           0
         NFxFlg=           0 DoJE=T BraDBF=F KetDBF=T FulRan=T
         wScrn=  0.000000 ICntrl=     500 IOpCl=  0 I1Cent=   200000004 NGrid=           0
         NMat0=    1 NMatS0=      1 NMatT0=    0 NMatD0=    1 NMtDS0=    0 NMtDT0=    0
 Petite list used in FoFCou.
 Requested convergence on RMS density matrix=1.00D-08 within 128 cycles.
 Requested convergence on MAX density matrix=1.00D-06.
 Requested convergence on             energy=1.00D-06.
 No special actions if energy rises.
 Integral accuracy reduced to 1.0D-05 until final iterations.
 EnCoef did     4 forward-backward iterations
 Initial convergence to 1.0D-05 achieved.  Increase integral accuracy.
 SCF Done:  E(RS-VWN) =  -322.091113984     A.U. after   14 cycles
            NFock= 14  Conv=0.82D-08     -V/T= 2.0091
 PrsmSu:  requested number of processors reduced to:   7 ShMem   1 Linda.
 Calling FoFJK, ICntrl=      2527 FMM=F ISym2X=0 I1Cent= 0 IOpClX= 0 NMat=1 NMatS=1 NMatT=0.
 ***** Axes restored to original set *****
 -------------------------------------------------------------------
 Center     Atomic                   Forces (Hartrees/Bohr)
 Number     Number              X              Y              Z
 -------------------------------------------------------------------
      1        1           0.001082628   -0.000615302   -0.000527495
      2        7           0.009520929   -0.000900625   -0.012827876
      3        8          -0.012396346    0.003365984    0.007962901
      4        8           0.005427574    0.000992554    0.004865551
      5        6           0.000031621    0.000106983    0.000210230
      6        1          -0.000171807    0.000071092    0.000045296
      7        1          -0.000361459    0.000274638   -0.000160077
      8        6          -0.001902122   -0.003486285   -0.000088624
      9        1          -0.000508728    0.000417646   -0.000008352
     10        1          -0.000878388   -0.000155471   -0.000023614
     11        1           0.000021373   -0.000107476    0.000303467
     12        1           0.000155467   -0.000284299   -0.000166990
     13        6          -0.000020741    0.000320560    0.000415583
 -------------------------------------------------------------------
 Cartesian Forces:  Max     0.012827876 RMS     0.003783278

 GradGradGradGradGradGradGradGradGradGradGradGradGradGradGradGradGradGrad
 Berny optimization.
 Search for a local minimum.
 Step number   2 out of a maximum of   49
 All quantities printed in internal units (Hartrees-Bohrs-Radians)
 Update second derivatives using D2CorN and points    1    2
 DE= -1.66D-04 DEPred=-6.43D-04 R= 2.58D-01
 Trust test= 2.58D-01 RLast= 2.89D-01 DXMaxT set to 3.00D-01
 ITU=  0  0
     Eigenvalues ---    0.00083   0.00288   0.00763   0.01685   0.02264
     Eigenvalues ---    0.02466   0.03524   0.04743   0.05182   0.05446
     Eigenvalues ---    0.05595   0.07024   0.07735   0.09069   0.10863
     Eigenvalues ---    0.12267   0.13257   0.13828   0.16645   0.17821
     Eigenvalues ---    0.20814   0.28051   0.41986   0.59161   0.73987
     Eigenvalues ---    0.78598   0.86995   0.88840   0.96392   1.06221
     Eigenvalues ---    1.08599   1.16220   2.58101
 RFO step:  Lambda=-1.90096412D-03 EMin= 8.26456464D-04
 Quartic linear search produced a step of -0.34908.
 Maximum step size (   0.300) exceeded in Quadratic search.
    -- Step size scaled by   0.415
 TrRot=  0.013270  0.015690 -0.005493 -0.315170  0.002563  0.319859
 Variable       Old X    -DE/DX   Delta X   Delta X   Delta X     New X
                                 (Linear)    (Quad)   (Total)
    X1       -1.24123   0.00108  -0.01026   0.01161  -0.00353  -1.24475
    Y1        3.99977  -0.00062   0.00777  -0.03889  -0.02143   3.97834
    Z1        0.13935  -0.00053  -0.00293   0.04224   0.04003   0.17938
    X2        2.83067   0.00952   0.00187   0.09505   0.11216   2.94283
    Y2       -0.14614  -0.00090   0.02833   0.09765   0.15478   0.00863
    Z2        0.79221  -0.01283   0.00594  -0.01199  -0.01869   0.77352
    X3        4.62962  -0.01240  -0.05123   0.03201  -0.00258   4.62704
    Y3       -0.84736   0.00337  -0.06538   0.01680  -0.01101  -0.85836
    Z3       -0.29978   0.00796   0.00872  -0.02382  -0.03253  -0.33231
    X4        1.06206   0.00543  -0.00839   0.03607   0.03365   1.09571
    Y4        1.06803   0.00099   0.00285   0.02241   0.04675   1.11479
    Z4       -0.89687   0.00487  -0.00297   0.01177   0.00154  -0.89533
    X5       -3.36835   0.00003   0.00000   0.00200   0.01224  -3.35611
    Y5        0.51416   0.00011   0.00113  -0.01602  -0.01475   0.49941
    Z5       -0.28833   0.00021   0.00347  -0.01898  -0.01240  -0.30073
    X6       -3.77757  -0.00017  -0.00529   0.04125   0.03943  -3.73814
    Y6        0.91507   0.00007   0.00185  -0.01748  -0.01566   0.89941
    Z6       -2.29188   0.00005   0.00475  -0.02770  -0.01861  -2.31049
    X7       -4.97901  -0.00036   0.00032  -0.00459   0.00498  -4.97403
    Y7        1.25292   0.00027  -0.00760   0.02437   0.00847   1.26139
    Z7        0.80813  -0.00016   0.00863  -0.05338  -0.03709   0.77104
    X8       -1.04570  -0.00190  -0.00411   0.00994   0.01134  -1.03436
    Y8        1.95563  -0.00349   0.00827  -0.04208  -0.02341   1.93222
    Z8        0.49219  -0.00009  -0.00143   0.01782   0.01498   0.50716
    X9       -0.62891  -0.00051   0.00377  -0.00860   0.00712  -0.62179
    Y9        1.65552   0.00042   0.00983  -0.06234  -0.04182   1.61370
    Z9        2.51982  -0.00001  -0.00287   0.01872   0.01318   2.53300
   X10       -4.75922  -0.00088   0.02217  -0.11004  -0.05997  -4.81919
   Y10       -3.34231  -0.00016  -0.00491   0.02429   0.01272  -3.32959
   Z10       -0.41627  -0.00002  -0.00665   0.00462   0.00159  -0.41468
   X11       -2.64747   0.00002   0.01761  -0.11750  -0.06860  -2.71607
   Y11       -2.71113  -0.00011   0.00071  -0.01670  -0.01485  -2.72598
   Z11        2.11952   0.00030  -0.00549   0.02119   0.01469   2.13421
   X12       -1.47780   0.00016   0.01839  -0.08974  -0.04593  -1.52374
   Y12       -3.02453  -0.00028   0.01434  -0.08431  -0.06074  -3.08526
   Z12       -1.00585  -0.00017  -0.00523   0.03508   0.02563  -0.98022
   X13       -3.05789  -0.00002   0.01515  -0.07990  -0.04030  -3.09819
   Y13       -2.28573   0.00032   0.00280  -0.02282  -0.01905  -2.30478
   Z13        0.12360   0.00042  -0.00394   0.01137   0.00768   0.13128
         Item               Value     Threshold  Converged?
 Maximum Force            0.012828     0.000450     NO 
 RMS     Force            0.003783     0.000300     NO 
 Maximum Displacement     0.154777     0.001800     NO 
 RMS     Displacement     0.041721     0.001200     NO 
 Predicted change in Energy=-1.015120D-03
 GradGradGradGradGradGradGradGradGradGradGradGradGradGradGradGradGradGrad

                          Input orientation:                          
 ---------------------------------------------------------------------
 Center     Atomic      Atomic             Coordinates (Angstroms)
 Number     Number       Type             X           Y           Z
 ---------------------------------------------------------------------
      1          1           0       -0.658695    2.105246    0.094926
      2          7           0        1.557279    0.004569    0.409331
      3          8           0        2.448525   -0.454225   -0.175852
      4          8           0        0.579823    0.589919   -0.473789
      5          6           0       -1.775976    0.264276   -0.159138
      6          1           0       -1.978140    0.475945   -1.222659
      7          1           0       -2.632145    0.667498    0.408015
      8          6           0       -0.547360    1.022484    0.268380
      9          1           0       -0.329039    0.853932    1.340406
     10          1           0       -2.550204   -1.761943   -0.219439
     11          1           0       -1.437280   -1.442524    1.129378
     12          1           0       -0.806327   -1.632652   -0.518708
     13          6           0       -1.639491   -1.219640    0.069472
 ---------------------------------------------------------------------
                    Distance matrix (angstroms):
                    1          2          3          4          5
     1  H    0.000000
     2  N    3.069565   0.000000
     3  O    4.034728   1.160712   0.000000
     4  O    2.038033   1.441511   2.161261   0.000000
     5  C    2.168417   3.391341   4.285199   2.398924   0.000000
     6  H    2.476204   3.922343   4.642886   2.667766   1.103064
     7  H    2.461635   4.241551   5.235683   3.331717   1.103303
     8  C    1.102204   2.342119   3.369472   1.417205   1.505705
     9  H    1.796018   2.268593   3.424205   2.046225   2.165630
    10  H    4.316454   4.515233   5.167138   3.923394   2.169938
    11  H    3.776633   3.402929   4.216615   3.281718   2.165215
    12  H    3.790807   3.021322   3.478549   2.619781   2.160519
    13  C    3.466622   3.439990   4.166284   2.914617   1.507613
                    6          7          8          9         10
     6  H    0.000000
     7  H    1.767346   0.000000
     8  C    2.137530   2.119397   0.000000
     9  H    3.071109   2.491668   1.106939   0.000000
    10  H    2.518303   2.510497   3.464446   3.769548   0.000000
    11  H    3.083039   2.529873   2.758539   2.558601   1.777620
    12  H    2.512941   3.079466   2.781424   3.141211   1.774087
    13  C    2.158540   2.158995   2.501886   2.762654   1.098617
                   11         12         13
    11  H    0.000000
    12  H    1.774947   0.000000
    13  C    1.101802   1.100317   0.000000
 Stoichiometry    C3H7NO2
 Framework group  C1[X(C3H7NO2)]
 Deg. of freedom    33
 Full point group                 C1      NOp   1
 Largest Abelian subgroup         C1      NOp   1
 Largest concise Abelian subgroup C1      NOp   1
                         Standard orientation:                         
 ---------------------------------------------------------------------
 Center     Atomic      Atomic             Coordinates (Angstroms)
 Number     Number       Type             X           Y           Z
 ---------------------------------------------------------------------
      1          1           0        0.605611   -2.111323    0.097793
      2          7           0       -1.532868    0.066211    0.425639
      3          8           0       -2.411706    0.555438   -0.153631
      4          8           0       -0.583052   -0.554003   -0.463822
      5          6           0        1.784967   -0.310993   -0.166717
      6          1           0        1.971794   -0.530707   -1.231410
      7          1           0        2.630570   -0.743467    0.394708
      8          6           0        0.533640   -1.025145    0.270681
      9          1           0        0.329214   -0.847945    1.344051
     10          1           0        2.629412    1.686718   -0.235209
     11          1           0        1.515846    1.407951    1.122065
     12          1           0        0.879930    1.618460   -0.521630
     13          6           0        1.702353    1.177031    0.061000
 ---------------------------------------------------------------------
 Rotational constants (GHZ):      7.5984946      2.0989375      1.7929177
 Standard basis: TZVP (5D, 7F)
 There are   162 symmetry adapted cartesian basis functions of A   symmetry.
 There are   156 symmetry adapted basis functions of A   symmetry.
   156 basis functions,   266 primitive gaussians,   162 cartesian basis functions
    24 alpha electrons       24 beta electrons
       nuclear repulsion energy       242.8758540597 Hartrees.
 NAtoms=   13 NActive=   13 NUniq=   13 SFac= 1.00D+00 NAtFMM=   60 NAOKFM=F Big=F
 Integral buffers will be    131072 words long.
 Raffenetti 2 integral format.
 Two-electron integral symmetry is turned on.
 One-electron integrals computed using PRISM.
 PrsmSu:  requested number of processors reduced to:   7 ShMem   1 Linda.
 NBasis=   156 RedAO= T EigKep=  3.21D-04  NBF=   156
 NBsUse=   156 1.00D-06 EigRej= -1.00D+00 NBFU=   156
 Initial guess from the checkpoint file:  "/tmp/rdj3/g09-9389/Gau-16847.chk"
 B after Tr=     0.000000    0.000000    0.000000
         Rot=    0.999969   -0.004922    0.000369    0.006116 Ang=  -0.90 deg.
 ExpMin= 9.52D-02 ExpMax= 2.70D+04 ExpMxC= 9.22D+02 IAcc=2 IRadAn=         4 AccDes= 0.00D+00
 Harris functional with IExCor=  205 and IRadAn=       4 diagonalized for initial guess.
 HarFok:  IExCor=  205 AccDes= 0.00D+00 IRadAn=         4 IDoV= 1 UseB2=F ITyADJ=14
 ICtDFT=  3500011 ScaDFX=  1.000000  1.000000  1.000000  1.000000
 FoFCou: FMM=F IPFlag=           0 FMFlag=      100000 FMFlg1=           0
         NFxFlg=           0 DoJE=T BraDBF=F KetDBF=T FulRan=T
         wScrn=  0.000000 ICntrl=     500 IOpCl=  0 I1Cent=   200000004 NGrid=           0
         NMat0=    1 NMatS0=      1 NMatT0=    0 NMatD0=    1 NMtDS0=    0 NMtDT0=    0
 Petite list used in FoFCou.
 Requested convergence on RMS density matrix=1.00D-08 within 128 cycles.
 Requested convergence on MAX density matrix=1.00D-06.
 Requested convergence on             energy=1.00D-06.
 No special actions if energy rises.
 Integral accuracy reduced to 1.0D-05 until final iterations.
 EnCoef did     5 forward-backward iterations
 Initial convergence to 1.0D-05 achieved.  Increase integral accuracy.
 SCF Done:  E(RS-VWN) =  -322.091286029     A.U. after   14 cycles
            NFock= 14  Conv=0.21D-08     -V/T= 2.0090
 PrsmSu:  requested number of processors reduced to:   7 ShMem   1 Linda.
 Calling FoFJK, ICntrl=      2527 FMM=F ISym2X=0 I1Cent= 0 IOpClX= 0 NMat=1 NMatS=1 NMatT=0.
 ***** Axes restored to original set *****
 -------------------------------------------------------------------
 Center     Atomic                   Forces (Hartrees/Bohr)
 Number     Number              X              Y              Z
 -------------------------------------------------------------------
      1        1          -0.000336380    0.000017426    0.000192937
      2        7          -0.008106318    0.001534440    0.003115301
      3        8           0.005674582   -0.000960065   -0.004273300
      4        8           0.001338025   -0.001839558    0.001382360
      5        6           0.001462094   -0.000656627    0.000412757
      6        1           0.000064492   -0.000081212    0.000255246
      7        1           0.000155903    0.000420333   -0.000128478
      8        6          -0.000304033    0.000956987   -0.000764217
      9        1          -0.000060177   -0.000045296   -0.000228665
     10        1          -0.000234451   -0.000019935   -0.000031159
     11        1          -0.000020094    0.000075556    0.000151394
     12        1           0.000071871    0.000049446   -0.000047771
     13        6           0.000294484    0.000548505   -0.000036403
 -------------------------------------------------------------------
 Cartesian Forces:  Max     0.008106318 RMS     0.001905179

 GradGradGradGradGradGradGradGradGradGradGradGradGradGradGradGradGradGrad
 Berny optimization.
 Search for a local minimum.
 Step number   3 out of a maximum of   49
 All quantities printed in internal units (Hartrees-Bohrs-Radians)
 Update second derivatives using D2CorN and points    1    2    3
 DE= -1.72D-04 DEPred=-1.02D-03 R= 1.69D-01
 Trust test= 1.69D-01 RLast= 2.61D-01 DXMaxT set to 3.00D-01
 ITU=  0  0  0
     Eigenvalues ---    0.00128   0.00313   0.00770   0.01789   0.02279
     Eigenvalues ---    0.03346   0.03585   0.04742   0.05183   0.05467
     Eigenvalues ---    0.05602   0.07020   0.07748   0.09051   0.10883
     Eigenvalues ---    0.12347   0.13251   0.13823   0.16665   0.17835
     Eigenvalues ---    0.20834   0.28070   0.42035   0.59100   0.74035
     Eigenvalues ---    0.78907   0.86787   0.88852   0.96436   1.06219
     Eigenvalues ---    1.08601   1.16198   2.58520
 RFO step:  Lambda=-1.34673202D-04 EMin= 1.28217306D-03
 Quartic linear search produced a step of -0.43616.
 TrRot= -0.005890 -0.007110  0.002799 -2.900227  0.001062  2.897070
 Variable       Old X    -DE/DX   Delta X   Delta X   Delta X     New X
                                 (Linear)    (Quad)   (Total)
    X1       -1.24475  -0.00034   0.00154  -0.01579  -0.00764  -1.25240
    Y1        3.97834   0.00002   0.00935   0.01633   0.02249   4.00083
    Z1        0.17938   0.00019  -0.01746  -0.01902  -0.03395   0.14543
    X2        2.94283  -0.00811  -0.04892  -0.03137  -0.08725   2.85558
    Y2        0.00863   0.00153  -0.06751  -0.01812  -0.10197  -0.09334
    Z2        0.77352   0.00312   0.00815   0.00225   0.01613   0.78965
    X3        4.62704   0.00567   0.00113  -0.05416  -0.06149   4.56555
    Y3       -0.85836  -0.00096   0.00480  -0.05492  -0.07159  -0.92995
    Z3       -0.33231  -0.00427   0.01419   0.00433   0.02579  -0.30652
    X4        1.09571   0.00134  -0.01467   0.00695  -0.00915   1.08656
    Y4        1.11479  -0.00184  -0.02039   0.03332   0.00260   1.11739
    Z4       -0.89533   0.00138  -0.00067   0.00943   0.01297  -0.88236
    X5       -3.35611   0.00146  -0.00534   0.00365  -0.00567  -3.36177
    Y5        0.49941  -0.00066   0.00643  -0.00063   0.00937   0.50878
    Z5       -0.30073   0.00041   0.00541   0.00196   0.00684  -0.29389
    X6       -3.73814   0.00006  -0.01720  -0.01502  -0.03286  -3.77100
    Y6        0.89941  -0.00008   0.00683  -0.00140   0.01080   0.91021
    Z6       -2.31049   0.00026   0.00812   0.00609   0.01336  -2.29713
    X7       -4.97403   0.00016  -0.00217   0.00159  -0.00337  -4.97740
    Y7        1.26139   0.00042  -0.00370  -0.01964  -0.01495   1.24644
    Z7        0.77104  -0.00013   0.01618   0.01257   0.02674   0.79778
    X8       -1.03436  -0.00030  -0.00495  -0.00900  -0.01415  -1.04851
    Y8        1.93222   0.00096   0.01021   0.02036   0.02664   1.95885
    Z8        0.50716  -0.00076  -0.00653  -0.00492  -0.00923   0.49794
    X9       -0.62179  -0.00006  -0.00310  -0.01998  -0.02631  -0.64810
    Y9        1.61370  -0.00005   0.01824   0.03744   0.04995   1.66365
    Z9        2.53300  -0.00023  -0.00575  -0.00066  -0.00385   2.52915
   X10       -4.81919  -0.00023   0.02616   0.04962   0.05973  -4.75945
   Y10       -3.32959  -0.00002  -0.00555  -0.01835  -0.01591  -3.34550
   Z10       -0.41468  -0.00003  -0.00069   0.01794   0.01430  -0.40038
   X11       -2.71607  -0.00002   0.02992   0.08185   0.09515  -2.62092
   Y11       -2.72598   0.00008   0.00648   0.00729   0.01436  -2.71162
   Z11        2.13421   0.00015  -0.00641  -0.01141  -0.01840   2.11582
   X12       -1.52374   0.00007   0.02003   0.03860   0.04425  -1.47949
   Y12       -3.08526   0.00005   0.02649   0.02912   0.05340  -3.03187
   Z12       -0.98022  -0.00005  -0.01118  -0.03070  -0.04137  -1.02158
   X13       -3.09819   0.00029   0.01758   0.04441   0.04875  -3.04944
   Y13       -2.30478   0.00055   0.00831   0.00404   0.01481  -2.28998
   Z13        0.13128  -0.00004  -0.00335  -0.00507  -0.00934   0.12194
         Item               Value     Threshold  Converged?
 Maximum Force            0.008106     0.000450     NO 
 RMS     Force            0.001905     0.000300     NO 
 Maximum Displacement     0.101972     0.001800     NO 
 RMS     Displacement     0.039005     0.001200     NO 
 Predicted change in Energy=-2.047397D-06
 GradGradGradGradGradGradGradGradGradGradGradGradGradGradGradGradGradGrad

                          Input orientation:                          
 ---------------------------------------------------------------------
 Center     Atomic      Atomic             Coordinates (Angstroms)
 Number     Number       Type             X           Y           Z
 ---------------------------------------------------------------------
      1          1           0       -0.662740    2.117146    0.076960
      2          7           0        1.511110   -0.049392    0.417866
      3          8           0        2.415987   -0.492109   -0.162205
      4          8           0        0.574980    0.591297   -0.466926
      5          6           0       -1.778974    0.269235   -0.155519
      6          1           0       -1.995529    0.481663   -1.215591
      7          1           0       -2.633926    0.659589    0.422166
      8          6           0       -0.554846    1.036580    0.263498
      9          1           0       -0.342962    0.880367    1.338370
     10          1           0       -2.518594   -1.770363   -0.211870
     11          1           0       -1.386929   -1.434927    1.119642
     12          1           0       -0.782913   -1.604394   -0.540599
     13          6           0       -1.613694   -1.211804    0.064530
 ---------------------------------------------------------------------
                    Distance matrix (angstroms):
                    1          2          3          4          5
     1  H    0.000000
     2  N    3.087997   0.000000
     3  O    4.042768   1.162447   0.000000
     4  O    2.038622   1.438637   2.157760   0.000000
     5  C    2.171359   3.354839   4.263495   2.396206   0.000000
     6  H    2.474231   3.904704   4.638892   2.679559   1.102621
     7  H    2.475725   4.205234   5.212438   3.330500   1.103195
     8  C    1.101844   2.339088   3.368079   1.417146   1.504289
     9  H    1.795282   2.269220   3.427420   2.045794   2.160398
    10  H    4.317446   4.426829   5.097694   3.900345   2.170293
    11  H    3.772116   3.287982   4.122403   3.236027   2.164232
    12  H    3.774345   2.932444   3.407832   2.582705   2.156597
    13  C    3.462134   3.352677   4.099718   2.885119   1.506391
                    6          7          8          9         10
     6  H    0.000000
     7  H    1.766765   0.000000
     8  C    2.138037   2.118932   0.000000
     9  H    3.068006   2.477234   1.106638   0.000000
    10  H    2.520451   2.513955   3.458498   3.763375   0.000000
    11  H    3.081724   2.535443   2.744757   2.549175   1.779356
    12  H    2.505531   3.078764   2.770078   3.146128   1.774315
    13  C    2.156928   2.161224   2.493186   2.759457   1.098740
                   11         12         13
    11  H    0.000000
    12  H    1.774811   0.000000
    13  C    1.102028   1.100229   0.000000
 Stoichiometry    C3H7NO2
 Framework group  C1[X(C3H7NO2)]
 Deg. of freedom    33
 Full point group                 C1      NOp   1
 Largest Abelian subgroup         C1      NOp   1
 Largest concise Abelian subgroup C1      NOp   1
                         Standard orientation:                         
 ---------------------------------------------------------------------
 Center     Atomic      Atomic             Coordinates (Angstroms)
 Number     Number       Type             X           Y           Z
 ---------------------------------------------------------------------
      1          1           0        0.639964   -2.120052    0.085765
      2          7           0       -1.497819    0.082213    0.425820
      3          8           0       -2.398119    0.536504   -0.152421
      4          8           0       -0.575840   -0.577336   -0.459971
      5          6           0        1.784261   -0.291157   -0.160260
      6          1           0        1.992767   -0.511921   -1.220242
      7          1           0        2.635460   -0.692312    0.415564
      8          6           0        0.549999   -1.037056    0.267661
      9          1           0        0.345338   -0.872504    1.342689
     10          1           0        2.555800    1.736184   -0.229440
     11          1           0        1.424832    1.424918    1.108518
     12          1           0        0.816284    1.596202   -0.549880
     13          6           0        1.643400    1.193322    0.053502
 ---------------------------------------------------------------------
 Rotational constants (GHZ):      7.5147909      2.1485058      1.8222771
 Standard basis: TZVP (5D, 7F)
 There are   162 symmetry adapted cartesian basis functions of A   symmetry.
 There are   156 symmetry adapted basis functions of A   symmetry.
   156 basis functions,   266 primitive gaussians,   162 cartesian basis functions
    24 alpha electrons       24 beta electrons
       nuclear repulsion energy       243.6591362608 Hartrees.
 NAtoms=   13 NActive=   13 NUniq=   13 SFac= 1.00D+00 NAtFMM=   60 NAOKFM=F Big=F
 Integral buffers will be    131072 words long.
 Raffenetti 2 integral format.
 Two-electron integral symmetry is turned on.
 One-electron integrals computed using PRISM.
 PrsmSu:  requested number of processors reduced to:   7 ShMem   1 Linda.
 NBasis=   156 RedAO= T EigKep=  3.05D-04  NBF=   156
 NBsUse=   156 1.00D-06 EigRej= -1.00D+00 NBFU=   156
 Initial guess from the checkpoint file:  "/tmp/rdj3/g09-9389/Gau-16847.chk"
 B after Tr=     0.000000    0.000000    0.000000
         Rot=    0.999979    0.002512   -0.000142   -0.005920 Ang=   0.74 deg.
 ExpMin= 9.52D-02 ExpMax= 2.70D+04 ExpMxC= 9.22D+02 IAcc=2 IRadAn=         4 AccDes= 0.00D+00
 Harris functional with IExCor=  205 and IRadAn=       4 diagonalized for initial guess.
 HarFok:  IExCor=  205 AccDes= 0.00D+00 IRadAn=         4 IDoV= 1 UseB2=F ITyADJ=14
 ICtDFT=  3500011 ScaDFX=  1.000000  1.000000  1.000000  1.000000
 FoFCou: FMM=F IPFlag=           0 FMFlag=      100000 FMFlg1=           0
         NFxFlg=           0 DoJE=T BraDBF=F KetDBF=T FulRan=T
         wScrn=  0.000000 ICntrl=     500 IOpCl=  0 I1Cent=   200000004 NGrid=           0
         NMat0=    1 NMatS0=      1 NMatT0=    0 NMatD0=    1 NMtDS0=    0 NMtDT0=    0
 Petite list used in FoFCou.
 Requested convergence on RMS density matrix=1.00D-08 within 128 cycles.
 Requested convergence on MAX density matrix=1.00D-06.
 Requested convergence on             energy=1.00D-06.
 No special actions if energy rises.
 Integral accuracy reduced to 1.0D-05 until final iterations.
 EnCoef did     5 forward-backward iterations
 Initial convergence to 1.0D-05 achieved.  Increase integral accuracy.
 SCF Done:  E(RS-VWN) =  -322.091433221     A.U. after   13 cycles
            NFock= 13  Conv=0.99D-08     -V/T= 2.0090
 PrsmSu:  requested number of processors reduced to:   7 ShMem   1 Linda.
 Calling FoFJK, ICntrl=      2527 FMM=F ISym2X=0 I1Cent= 0 IOpClX= 0 NMat=1 NMatS=1 NMatT=0.
 ***** Axes restored to original set *****
 -------------------------------------------------------------------
 Center     Atomic                   Forces (Hartrees/Bohr)
 Number     Number              X              Y              Z
 -------------------------------------------------------------------
      1        1          -0.000072166   -0.000054231   -0.000097914
      2        7          -0.005537798    0.001611538    0.001187045
      3        8           0.004089051   -0.001001177   -0.002580743
      4        8           0.001198742   -0.000372481    0.001621432
      5        6           0.000679880   -0.000097153    0.000035748
      6        1           0.000047671   -0.000051506   -0.000046258
      7        1           0.000027881    0.000211892   -0.000063245
      8        6          -0.000167941    0.000117871   -0.000204838
      9        1           0.000170344   -0.000040434   -0.000097141
     10        1          -0.000184559    0.000030541    0.000111873
     11        1          -0.000081092   -0.000016527    0.000038500
     12        1          -0.000036768   -0.000270768    0.000029789
     13        6          -0.000133245   -0.000067563    0.000065752
 -------------------------------------------------------------------
 Cartesian Forces:  Max     0.005537798 RMS     0.001281932

 GradGradGradGradGradGradGradGradGradGradGradGradGradGradGradGradGradGrad
 Berny optimization.
 Search for a local minimum.
 Step number   4 out of a maximum of   49
 All quantities printed in internal units (Hartrees-Bohrs-Radians)
 Update second derivatives using D2CorN and points    1    2    3    4
 DE= -1.47D-04 DEPred=-2.05D-06 R= 7.19D+01
 TightC=F SS=  1.41D+00  RLast= 2.44D-01 DXNew= 5.0454D-01 7.3075D-01
 Trust test= 7.19D+01 RLast= 2.44D-01 DXMaxT set to 5.05D-01
 ITU=  1  0  0  0
     Eigenvalues ---    0.00064   0.00267   0.00554   0.01687   0.02276
     Eigenvalues ---    0.03430   0.04321   0.04760   0.05175   0.05530
     Eigenvalues ---    0.05603   0.07034   0.07755   0.09031   0.10900
     Eigenvalues ---    0.12423   0.13253   0.13830   0.16657   0.17850
     Eigenvalues ---    0.20819   0.28047   0.42031   0.59151   0.73950
     Eigenvalues ---    0.78634   0.86927   0.88843   0.96412   1.06214
     Eigenvalues ---    1.08610   1.16196   2.58928
 RFO step:  Lambda=-3.19702909D-04 EMin= 6.43460462D-04
 Quartic linear search produced a step of  0.21645.
 TrRot=  0.011343  0.019749 -0.014077 -0.594734  0.007185  0.601114
 Variable       Old X    -DE/DX   Delta X   Delta X   Delta X     New X
                                 (Linear)    (Quad)   (Total)
    X1       -1.25240  -0.00007  -0.00165   0.00200  -0.01219  -1.26458
    Y1        4.00083  -0.00005   0.00487  -0.02842  -0.01287   3.98796
    Z1        0.14543  -0.00010  -0.00735   0.09766   0.09981   0.24524
    X2        2.85558  -0.00554  -0.01889   0.03621   0.03389   2.88948
    Y2       -0.09334   0.00161  -0.02207   0.00099   0.01392  -0.07941
    Z2        0.78965   0.00119   0.00349  -0.02001  -0.04811   0.74155
    X3        4.56555   0.00409  -0.01331   0.06444   0.06550   4.63106
    Y3       -0.92995  -0.00100  -0.01550   0.09918   0.13445  -0.79550
    Z3       -0.30652  -0.00258   0.00558  -0.06661  -0.10589  -0.41241
    X4        1.08656   0.00120  -0.00198   0.02980   0.02670   1.11326
    Y4        1.11739  -0.00037   0.00056   0.02849   0.05935   1.17674
    Z4       -0.88236   0.00162   0.00281   0.02046   0.00727  -0.87509
    X5       -3.36177   0.00068  -0.00123   0.02694   0.03203  -3.32974
    Y5        0.50878  -0.00010   0.00203  -0.01516  -0.01337   0.49541
    Z5       -0.29389   0.00004   0.00148  -0.04237  -0.03318  -0.32707
    X6       -3.77100   0.00005  -0.00711   0.12214   0.10691  -3.66409
    Y6        0.91021  -0.00005   0.00234  -0.04188  -0.03368   0.87653
    Z6       -2.29713  -0.00005   0.00289  -0.06787  -0.05379  -2.35093
    X7       -4.97740   0.00003  -0.00073  -0.00049   0.00610  -4.97130
    Y7        1.24644   0.00021  -0.00323   0.05132   0.03325   1.27969
    Z7        0.79778  -0.00006   0.00579  -0.12678  -0.10033   0.69745
    X8       -1.04851  -0.00017  -0.00306   0.01305   0.01226  -1.03625
    Y8        1.95885   0.00012   0.00577  -0.03865  -0.02196   1.93689
    Z8        0.49794  -0.00020  -0.00200   0.03351   0.03140   0.52934
    X9       -0.64810   0.00017  -0.00569  -0.00776   0.00312  -0.64498
    Y9        1.66365  -0.00004   0.01081  -0.10241  -0.08641   1.57724
    Z9        2.52915  -0.00010  -0.00083   0.02867   0.02401   2.55316
   X10       -4.75945  -0.00018   0.01293  -0.11564  -0.07237  -4.83182
   Y10       -3.34550   0.00003  -0.00344   0.03884   0.02569  -3.31981
   Z10       -0.40038   0.00011   0.00310   0.01731   0.02170  -0.37868
   X11       -2.62092  -0.00008   0.02060  -0.16937  -0.10726  -2.72818
   Y11       -2.71162  -0.00002   0.00311   0.01750   0.01399  -2.69763
   Z11        2.11582   0.00004  -0.00398   0.06136   0.04872   2.16453
   X12       -1.47949  -0.00004   0.00958  -0.08268  -0.04720  -1.52669
   Y12       -3.03187  -0.00027   0.01156  -0.12142  -0.09622  -3.12809
   Z12       -1.02158   0.00003  -0.00895   0.10544   0.07886  -0.94272
   X13       -3.04944  -0.00013   0.01055  -0.08513  -0.04750  -3.09694
   Y13       -2.28998  -0.00007   0.00321  -0.01855  -0.01613  -2.30611
   Z13        0.12194   0.00007  -0.00202   0.03650   0.02954   0.15148
         Item               Value     Threshold  Converged?
 Maximum Force            0.005538     0.000450     NO 
 RMS     Force            0.001282     0.000300     NO 
 Maximum Displacement     0.134447     0.001800     NO 
 RMS     Displacement     0.058174     0.001200     NO 
 Predicted change in Energy=-1.621315D-04
 GradGradGradGradGradGradGradGradGradGradGradGradGradGradGradGradGradGrad

                          Input orientation:                          
 ---------------------------------------------------------------------
 Center     Atomic      Atomic             Coordinates (Angstroms)
 Number     Number       Type             X           Y           Z
 ---------------------------------------------------------------------
      1          1           0       -0.669188    2.110337    0.129777
      2          7           0        1.529045   -0.042023    0.392410
      3          8           0        2.450649   -0.420963   -0.218240
      4          8           0        0.589112    0.622702   -0.463079
      5          6           0       -1.762024    0.262160   -0.173077
      6          1           0       -1.938955    0.463840   -1.244056
      7          1           0       -2.630700    0.677184    0.369074
      8          6           0       -0.548357    1.024958    0.280113
      9          1           0       -0.341308    0.834639    1.351073
     10          1           0       -2.556890   -1.756767   -0.200390
     11          1           0       -1.443689   -1.427525    1.145422
     12          1           0       -0.807892   -1.655314   -0.498866
     13          6           0       -1.638832   -1.220340    0.080160
 ---------------------------------------------------------------------
                    Distance matrix (angstroms):
                    1          2          3          4          5
     1  H    0.000000
     2  N    3.087695   0.000000
     3  O    4.032615   1.168693   0.000000
     4  O    2.036628   1.434292   2.148140   0.000000
     5  C    2.168357   3.353124   4.267940   2.396233   0.000000
     6  H    2.492123   3.867938   4.593888   2.650714   1.104072
     7  H    2.441048   4.221525   5.231727   3.326053   1.104885
     8  C    1.102383   2.338089   3.366464   1.417032   1.503406
     9  H    1.796239   2.277234   3.440103   2.049816   2.160834
    10  H    4.315892   4.470640   5.182677   3.953253   2.169936
    11  H    3.761363   3.365084   4.247189   3.304994   2.166751
    12  H    3.820283   2.976299   3.495778   2.672500   2.166382
    13  C    3.469305   3.394315   4.177547   2.942048   1.509010
                    6          7          8          9         10
     6  H    0.000000
     7  H    1.768111   0.000000
     8  C    2.138155   2.113057   0.000000
     9  H    3.069962   2.496082   1.107270   0.000000
    10  H    2.530253   2.500771   3.464546   3.745828   0.000000
    11  H    3.087419   2.538013   2.750464   2.524861   1.777308
    12  H    2.515040   3.084882   2.803217   3.136852   1.777182
    13  C    2.163351   2.160526   2.504092   2.742576   1.099679
                   11         12         13
    11  H    0.000000
    12  H    1.777585   0.000000
    13  C    1.102628   1.102241   0.000000
 Stoichiometry    C3H7NO2
 Framework group  C1[X(C3H7NO2)]
 Deg. of freedom    33
 Full point group                 C1      NOp   1
 Largest Abelian subgroup         C1      NOp   1
 Largest concise Abelian subgroup C1      NOp   1
                         Standard orientation:                         
 ---------------------------------------------------------------------
 Center     Atomic      Atomic             Coordinates (Angstroms)
 Number     Number       Type             X           Y           Z
 ---------------------------------------------------------------------
      1          1           0        0.607845   -2.115153    0.140441
      2          7           0       -1.498726    0.123857    0.428627
      3          8           0       -2.414973    0.536111   -0.168350
      4          8           0       -0.600639   -0.581659   -0.439059
      5          6           0        1.767547   -0.313198   -0.190951
      6          1           0        1.917953   -0.526827   -1.263666
      7          1           0        2.628311   -0.759737    0.338633
      8          6           0        0.532626   -1.025135    0.286904
      9          1           0        0.351680   -0.821665    1.360172
     10          1           0        2.641038    1.672490   -0.242719
     11          1           0        1.538958    1.394031    1.123555
     12          1           0        0.884530    1.639008   -0.510924
     13          6           0        1.707438    1.174207    0.056278
 ---------------------------------------------------------------------
 Rotational constants (GHZ):      7.5669913      2.1114574      1.8008938
 Standard basis: TZVP (5D, 7F)
 There are   162 symmetry adapted cartesian basis functions of A   symmetry.
 There are   156 symmetry adapted basis functions of A   symmetry.
   156 basis functions,   266 primitive gaussians,   162 cartesian basis functions
    24 alpha electrons       24 beta electrons
       nuclear repulsion energy       243.0034344346 Hartrees.
 NAtoms=   13 NActive=   13 NUniq=   13 SFac= 1.00D+00 NAtFMM=   60 NAOKFM=F Big=F
 Integral buffers will be    131072 words long.
 Raffenetti 2 integral format.
 Two-electron integral symmetry is turned on.
 One-electron integrals computed using PRISM.
 PrsmSu:  requested number of processors reduced to:   7 ShMem   1 Linda.
 NBasis=   156 RedAO= T EigKep=  3.10D-04  NBF=   156
 NBsUse=   156 1.00D-06 EigRej= -1.00D+00 NBFU=   156
 Initial guess from the checkpoint file:  "/tmp/rdj3/g09-9389/Gau-16847.chk"
 B after Tr=     0.000000    0.000000    0.000000
         Rot=    0.999960    0.004618   -0.002150    0.007367 Ang=   1.03 deg.
 ExpMin= 9.52D-02 ExpMax= 2.70D+04 ExpMxC= 9.22D+02 IAcc=2 IRadAn=         4 AccDes= 0.00D+00
 Harris functional with IExCor=  205 and IRadAn=       4 diagonalized for initial guess.
 HarFok:  IExCor=  205 AccDes= 0.00D+00 IRadAn=         4 IDoV= 1 UseB2=F ITyADJ=14
 ICtDFT=  3500011 ScaDFX=  1.000000  1.000000  1.000000  1.000000
 FoFCou: FMM=F IPFlag=           0 FMFlag=      100000 FMFlg1=           0
         NFxFlg=           0 DoJE=T BraDBF=F KetDBF=T FulRan=T
         wScrn=  0.000000 ICntrl=     500 IOpCl=  0 I1Cent=   200000004 NGrid=           0
         NMat0=    1 NMatS0=      1 NMatT0=    0 NMatD0=    1 NMtDS0=    0 NMtDT0=    0
 Petite list used in FoFCou.
 Requested convergence on RMS density matrix=1.00D-08 within 128 cycles.
 Requested convergence on MAX density matrix=1.00D-06.
 Requested convergence on             energy=1.00D-06.
 No special actions if energy rises.
 Integral accuracy reduced to 1.0D-05 until final iterations.
 EnCoef did     5 forward-backward iterations
 Initial convergence to 1.0D-05 achieved.  Increase integral accuracy.
 SCF Done:  E(RS-VWN) =  -322.091500205     A.U. after   13 cycles
            NFock= 13  Conv=0.67D-08     -V/T= 2.0091
 PrsmSu:  requested number of processors reduced to:   7 ShMem   1 Linda.
 Calling FoFJK, ICntrl=      2527 FMM=F ISym2X=0 I1Cent= 0 IOpClX= 0 NMat=1 NMatS=1 NMatT=0.
 ***** Axes restored to original set *****
 -------------------------------------------------------------------
 Center     Atomic                   Forces (Hartrees/Bohr)
 Number     Number              X              Y              Z
 -------------------------------------------------------------------
      1        1           0.000033461   -0.000314640   -0.000083529
      2        7           0.001645755   -0.000282190   -0.007670125
      3        8          -0.001415243    0.000420159    0.004274167
      4        8           0.000457381   -0.000573152    0.003979595
      5        6          -0.000901609   -0.000297206    0.001234529
      6        1           0.000302466   -0.000258756    0.000843437
      7        1           0.000393216   -0.000374015   -0.000622748
      8        6          -0.000954853    0.000074724   -0.000805960
      9        1           0.000254837    0.000007368   -0.000595876
     10        1           0.000480825    0.000133783   -0.000219916
     11        1           0.000050209    0.000334550   -0.000421429
     12        1          -0.000776610    0.000530514    0.000608246
     13        6           0.000430163    0.000598861   -0.000520392
 -------------------------------------------------------------------
 Cartesian Forces:  Max     0.007670125 RMS     0.001657708

 GradGradGradGradGradGradGradGradGradGradGradGradGradGradGradGradGradGrad
 Berny optimization.
 Search for a local minimum.
 Step number   5 out of a maximum of   49
 All quantities printed in internal units (Hartrees-Bohrs-Radians)
 Update second derivatives using D2CorN and points    1    2    3    4    5

 DE= -6.70D-05 DEPred=-1.62D-04 R= 4.13D-01
 Trust test= 4.13D-01 RLast= 3.63D-01 DXMaxT set to 5.05D-01
 ITU=  0  1  0  0  0
     Eigenvalues ---    0.00054   0.00286   0.00606   0.01706   0.02280
     Eigenvalues ---    0.03388   0.04151   0.04757   0.05181   0.05529
     Eigenvalues ---    0.05609   0.07041   0.07758   0.09051   0.10929
     Eigenvalues ---    0.12443   0.13254   0.13827   0.16682   0.17856
     Eigenvalues ---    0.20825   0.28100   0.42026   0.59080   0.73947
     Eigenvalues ---    0.78374   0.87023   0.88882   0.96446   1.06205
     Eigenvalues ---    1.08568   1.16165   2.58863
 RFO step:  Lambda=-2.23158345D-04 EMin= 5.38593254D-04
 Quartic linear search produced a step of -0.35211.
 TrRot=  0.011093  0.015595 -0.013958 -0.421829  0.006438  0.427323
 Variable       Old X    -DE/DX   Delta X   Delta X   Delta X     New X
                                 (Linear)    (Quad)   (Total)
    X1       -1.26458   0.00003   0.00429   0.00314  -0.00139  -1.26597
    Y1        3.98796  -0.00031   0.00453  -0.03514  -0.02279   3.96517
    Z1        0.24524  -0.00008  -0.03514   0.08872   0.05754   0.30278
    X2        2.88948   0.00165  -0.01193   0.04930   0.05291   2.94239
    Y2       -0.07941  -0.00028  -0.00490   0.01195   0.03688  -0.04253
    Z2        0.74155  -0.00767   0.01694  -0.05218  -0.06656   0.67499
    X3        4.63106  -0.00142  -0.02306   0.09269   0.08232   4.71337
    Y3       -0.79550   0.00042  -0.04734   0.08379   0.07900  -0.71651
    Z3       -0.41241   0.00427   0.03729  -0.03600  -0.04223  -0.45465
    X4        1.11326   0.00046  -0.00940   0.00849  -0.00132   1.11194
    Y4        1.17674  -0.00057  -0.02090   0.00306   0.00614   1.18288
    Z4       -0.87509   0.00398  -0.00256   0.00923  -0.01069  -0.88578
    X5       -3.32974  -0.00090  -0.01128   0.00534   0.00058  -3.32916
    Y5        0.49541  -0.00030   0.00471  -0.00904  -0.00620   0.48921
    Z5       -0.32707   0.00123   0.01168  -0.02234  -0.00375  -0.33082
    X6       -3.66409   0.00030  -0.03764   0.10076   0.05568  -3.60842
    Y6        0.87653  -0.00026   0.01186  -0.03335  -0.01946   0.85707
    Z6       -2.35093   0.00084   0.01894  -0.04375  -0.01534  -2.36626
    X7       -4.97130   0.00039  -0.00215  -0.02354  -0.01797  -4.98927
    Y7        1.27969  -0.00037  -0.01171   0.04614   0.02086   1.30055
    Z7        0.69745  -0.00062   0.03533  -0.10655  -0.05241   0.64504
    X8       -1.03625  -0.00095  -0.00432   0.00347   0.00307  -1.03318
    Y8        1.93689   0.00007   0.00773  -0.04370  -0.02756   1.90933
    Z8        0.52934  -0.00081  -0.01106   0.02987   0.01599   0.54533
    X9       -0.64498   0.00025  -0.00110   0.00088   0.01771  -0.62727
    Y9        1.57724   0.00001   0.03043  -0.10399  -0.06830   1.50894
    Z9        2.55316  -0.00060  -0.00845   0.01952   0.00485   2.55801
   X10       -4.83182   0.00048   0.02548  -0.08303  -0.03065  -4.86247
   Y10       -3.31981   0.00013  -0.00905   0.03306   0.01387  -3.30594
   Z10       -0.37868  -0.00022  -0.00764  -0.02814  -0.02987  -0.40856
   X11       -2.72818   0.00005   0.03777  -0.18793  -0.11131  -2.83949
   Y11       -2.69763   0.00033  -0.00493   0.02293   0.01200  -2.68563
   Z11        2.16453  -0.00042  -0.01715   0.05980   0.03836   2.20290
   X12       -1.52669  -0.00078   0.01662  -0.05056  -0.01043  -1.53712
   Y12       -3.12809   0.00053   0.03388  -0.06652  -0.02334  -3.15143
   Z12       -0.94272   0.00061  -0.02777   0.12357   0.08257  -0.86015
   X13       -3.09694   0.00043   0.01673  -0.08079  -0.03920  -3.13614
   Y13       -2.30611   0.00060   0.00568  -0.00458  -0.00111  -2.30722
   Z13        0.15148  -0.00052  -0.01040   0.03354   0.02154   0.17303
         Item               Value     Threshold  Converged?
 Maximum Force            0.007670     0.000450     NO 
 RMS     Force            0.001658     0.000300     NO 
 Maximum Displacement     0.111311     0.001800     NO 
 RMS     Displacement     0.041193     0.001200     NO 
 Predicted change in Energy=-1.397558D-04
 GradGradGradGradGradGradGradGradGradGradGradGradGradGradGradGradGradGrad

                          Input orientation:                          
 ---------------------------------------------------------------------
 Center     Atomic      Atomic             Coordinates (Angstroms)
 Number     Number       Type             X           Y           Z
 ---------------------------------------------------------------------
      1          1           0       -0.669923    2.098277    0.160224
      2          7           0        1.557043   -0.022505    0.357189
      3          8           0        2.494209   -0.379159   -0.240589
      4          8           0        0.588416    0.625953   -0.468737
      5          6           0       -1.761717    0.258878   -0.175063
      6          1           0       -1.909491    0.453541   -1.252173
      7          1           0       -2.640206    0.688224    0.341342
      8          6           0       -0.546734    1.010373    0.288576
      9          1           0       -0.331939    0.798496    1.353639
     10          1           0       -2.573108   -1.749428   -0.216198
     11          1           0       -1.502593   -1.421173    1.165722
     12          1           0       -0.813410   -1.667664   -0.455171
     13          6           0       -1.659575   -1.220926    0.091561
 ---------------------------------------------------------------------
                    Distance matrix (angstroms):
                    1          2          3          4          5
     1  H    0.000000
     2  N    3.081540   0.000000
     3  O    4.038573   1.167399   0.000000
     4  O    2.036356   1.428598   2.166645   0.000000
[...]
 Vibration     2          0.604              1.950              3.477
 Vibration     3          0.635              1.848              2.191
 Vibration     4          0.659              1.774              1.779
 Vibration     5          0.682              1.704              1.512
 Vibration     6          0.747              1.520              1.053
 Vibration     7          0.803              1.376              0.817
 Vibration     8          0.934              1.080              0.490
                       Q            Log10(Q)             Ln(Q)
 Total Bot       0.264975D-32        -32.576795        -75.010844
 Total V=0       0.294493D+15         14.469075         33.316275
 Vib (Bot)       0.500604D-45        -45.300506       -104.308270
 Vib (Bot)    1  0.355497D+01          0.550836          1.268348
 Vib (Bot)    2  0.207678D+01          0.317390          0.730818
 Vib (Bot)    3  0.103128D+01          0.013377          0.030802
 Vib (Bot)    4  0.804755D+00         -0.094336         -0.217217
 Vib (Bot)    5  0.676907D+00         -0.169471         -0.390222
 Vib (Bot)    6  0.481427D+00         -0.317470         -0.731001
 Vib (Bot)    7  0.389349D+00         -0.409661         -0.943279
 Vib (Bot)    8  0.264498D+00         -0.577577         -1.329921
 Vib (V=0)       0.556370D+02          1.745364          4.018849
 Vib (V=0)    1  0.408996D+01          0.611719          1.408536
 Vib (V=0)    2  0.263612D+01          0.420965          0.969309
 Vib (V=0)    3  0.164610D+01          0.216456          0.498408
 Vib (V=0)    4  0.144743D+01          0.160599          0.369792
 Vib (V=0)    5  0.134155D+01          0.127606          0.293824
 Vib (V=0)    6  0.119410D+01          0.077040          0.177391
 Vib (V=0)    7  0.113371D+01          0.054503          0.125498
 Vib (V=0)    8  0.106565D+01          0.027614          0.063584
 Electronic      0.100000D+01          0.000000          0.000000
 Translational   0.330285D+08          7.518889         17.312882
 Rotational      0.160259D+06          5.204822         11.984545
 ***** Axes restored to original set *****
 -------------------------------------------------------------------
 Center     Atomic                   Forces (Hartrees/Bohr)
 Number     Number              X              Y              Z
 -------------------------------------------------------------------
      1        1           0.000000364    0.000011095   -0.000012971
      2        7          -0.000101958    0.000037473   -0.000073152
      3        8           0.000020660    0.000028021   -0.000000373
      4        8           0.000139036   -0.000078446    0.000071235
      5        6           0.000006909   -0.000011902    0.000009316
      6        1          -0.000020378    0.000004114    0.000002569
      7        1          -0.000000462    0.000009652    0.000011116
      8        6          -0.000058947   -0.000006064    0.000011882
      9        1           0.000004580    0.000003464   -0.000004654
     10        1           0.000014042   -0.000004698   -0.000011105
     11        1          -0.000002625   -0.000003289   -0.000005391
     12        1           0.000003349    0.000004487    0.000003882
     13        6          -0.000004571    0.000006093   -0.000002354
 -------------------------------------------------------------------
 Cartesian Forces:  Max     0.000139036 RMS     0.000037332

 GradGradGradGradGradGradGradGradGradGradGradGradGradGradGradGradGradGrad
 Berny optimization.
 Search for a local minimum.
 Step number   1 out of a maximum of    2
 All quantities printed in internal units (Hartrees-Bohrs-Radians)
 Second derivative matrix not updated -- analytic derivatives used.
 ITU=  0
     Eigenvalues ---    0.00076   0.00098   0.00307   0.01002   0.01615
     Eigenvalues ---    0.02236   0.02842   0.03620   0.04188   0.05433
     Eigenvalues ---    0.05611   0.06996   0.07258   0.08419   0.09495
     Eigenvalues ---    0.10260   0.12393   0.13539   0.16165   0.17085
     Eigenvalues ---    0.20331   0.27330   0.35471   0.42537   0.52736
     Eigenvalues ---    0.64253   0.67531   0.73956   0.75345   0.78456
     Eigenvalues ---    0.81902   0.86741   1.73903
 Angle between quadratic step and forces=  75.06 degrees.
 Linear search not attempted -- first point.
 TrRot= -0.000136 -0.000265  0.000052 -0.000044 -0.000017 -0.000044
 Variable       Old X    -DE/DX   Delta X   Delta X   Delta X     New X
                                 (Linear)    (Quad)   (Total)
    X1       -1.29178   0.00000   0.00000   0.00001   0.00022  -1.29156
    Y1        4.01096   0.00001   0.00000   0.00044   0.00029   4.01125
    Z1        0.25547  -0.00001   0.00000  -0.00229  -0.00226   0.25321
    X2        2.79887  -0.00010   0.00000  -0.00215  -0.00232   2.79655
    Y2       -0.18630   0.00004   0.00000  -0.00208  -0.00259  -0.18889
    Z2        0.69064  -0.00007   0.00000  -0.00066  -0.00056   0.69008
    X3        4.56550   0.00002   0.00000  -0.00056  -0.00076   4.56474
    Y3       -0.86838   0.00003   0.00000  -0.00020  -0.00087  -0.86925
    Z3       -0.44030   0.00000   0.00000   0.00035   0.00049  -0.43982
    X4        1.11937   0.00014   0.00000   0.00073   0.00071   1.12008
    Y4        1.24312  -0.00008   0.00000   0.00041   0.00004   1.24317
    Z4       -0.86054   0.00007   0.00000   0.00037   0.00044  -0.86010
    X5       -3.32520   0.00001   0.00000  -0.00007  -0.00016  -3.32536
    Y5        0.49945  -0.00001   0.00000   0.00007   0.00010   0.49955
    Z5       -0.32022   0.00001   0.00000   0.00065   0.00065  -0.31957
    X6       -3.64492  -0.00002   0.00000  -0.00210  -0.00212  -3.64704
    Y6        0.86991   0.00000   0.00000   0.00044   0.00050   0.87041
    Z6       -2.34605   0.00000   0.00000   0.00104   0.00103  -2.34502
    X7       -4.98315   0.00000   0.00000   0.00060   0.00056  -4.98259
    Y7        1.26687   0.00001   0.00000  -0.00045  -0.00027   1.26660
    Z7        0.68476   0.00001   0.00000   0.00224   0.00220   0.68697
    X8       -1.04881  -0.00006   0.00000  -0.00010  -0.00008  -1.04888
    Y8        1.96359  -0.00001   0.00000   0.00068   0.00051   1.96410
    Z8        0.53882   0.00001   0.00000  -0.00047  -0.00043   0.53839
    X9       -0.65230   0.00000   0.00000  -0.00009  -0.00013  -0.65243
    Y9        1.60267   0.00000   0.00000   0.00231   0.00211   1.60478
    Z9        2.55961   0.00000   0.00000  -0.00023  -0.00019   2.55942
   X10       -4.75754   0.00001   0.00000   0.00249   0.00207  -4.75547
   Y10       -3.33817   0.00000   0.00000  -0.00081  -0.00066  -3.33883
   Z10       -0.41939  -0.00001   0.00000  -0.00246  -0.00249  -0.42188
   X11       -2.73240   0.00000   0.00000  -0.00064  -0.00105  -2.73345
   Y11       -2.67966   0.00000   0.00000  -0.00066  -0.00069  -2.68035
   Z11        2.18118  -0.00001   0.00000   0.00000   0.00000   2.18119
   X12       -1.44933   0.00000   0.00000   0.00269   0.00229  -1.44704
   Y12       -3.08668   0.00000   0.00000   0.00158   0.00144  -3.08524
   Z12       -0.88983   0.00000   0.00000   0.00121   0.00124  -0.88859
   X13       -3.05909   0.00000   0.00000   0.00110   0.00076  -3.05833
   Y13       -2.29350   0.00001   0.00000   0.00010   0.00010  -2.29340
   Z13        0.16168   0.00000   0.00000  -0.00010  -0.00010   0.16157
         Item               Value     Threshold  Converged?
 Maximum Force            0.000139     0.000450     YES
 RMS     Force            0.000037     0.000300     YES
 Maximum Displacement     0.002593     0.001800     NO 
 RMS     Displacement     0.001223     0.001200     NO 
 Predicted change in Energy=-2.246084D-07
 GradGradGradGradGradGradGradGradGradGradGradGradGradGradGradGradGradGrad

 1\1\GINC-N236\Freq\RSVWN\TZVP\C3H7N1O2\RDJ3\16-May-2014\0\\#N Geom=All
 Check Guess=TCheck SCRF=Check GenChk RSVWN/TZVP Freq\\propyl nitrite C
 3H7NO2 casno=543679 method=53 basis=32\\0,1\H,-0.6835803502,2.12250828
 88,0.1351900477\N,1.4810961384,-0.0985849177,0.3654727936\O,2.41595735
 72,-0.4595279633,-0.2329985224\O,0.5923436111,0.65783313,-0.455376743\
 C,-1.7596209394,0.2642998187,-0.1694509129\H,-1.928806761,0.4603368525
 ,-1.241473916\H,-2.6369705475,0.6704001638,0.3623618189\C,-0.555003736
 3,1.0390888187,0.2851305623\H,-0.3451812797,0.848096548,1.3544868276\H
 ,-2.5175842095,-1.7664835724,-0.2219312284\H,-1.4459233869,-1.41801357
 97,1.1542310414\H,-0.7669537908,-1.6333982458,-0.470875483\C,-1.618802
 1056,-1.2136693414,0.0855557121\\Version=EM64L-G09RevD.01\State=1-A\HF
 =-322.0916398\RMSD=1.041e-09\RMSF=3.733e-05\ZeroPoint=0.1022809\Therma
 l=0.1094322\Dipole=-0.9675718,0.2867395,0.2911522\DipoleDeriv=-0.01383
 69,0.0051658,0.011094,0.0246131,-0.1141724,-0.0030831,0.052069,0.02893
 58,0.0849305,1.817727,-0.8501137,0.0716351,-1.0409232,0.4967506,-0.148
 8103,0.0068448,-0.0935114,0.2915799,-1.2408745,0.5131045,-0.0164373,0.
 4681887,-0.277004,0.0556181,0.7317396,-0.2847045,-0.2082296,-1.1893207
 ,0.3611843,0.0652255,0.6560475,-0.527191,0.0295869,-0.5633985,0.308929
 2,-0.3988891,-0.0302485,-0.0136984,-0.0125992,-0.0044864,0.0465138,-0.
 0113295,0.0234472,-0.05356,0.0716761,0.0781349,-0.0144968,-0.0111463,-
 0.0180176,0.0110634,0.0380051,-0.0566541,0.0459837,-0.0926851,-0.06682
 02,0.0712792,0.0520913,0.0250697,0.0048578,-0.0351444,0.0841565,-0.050
 7664,0.0385308,0.6522681,-0.0674839,-0.0844321,-0.0515851,0.2722261,0.
 0300214,-0.2897227,0.1313213,0.2556668,0.0251576,-0.0050055,-0.0554937
 ,-0.0106494,0.0808259,0.0702582,0.0434576,-0.0297118,-0.076175,-0.0456
 639,-0.1012525,-0.0453268,-0.0736028,0.0095161,-0.0150414,-0.0521831,-
 0.0285831,0.0829702,0.0871525,0.0269235,-0.0437922,0.0115431,0.0438139
 ,-0.0084684,-0.0305951,0.0499185,-0.1004443,-0.0110713,0.0935256,0.069
 8872,0.05228,0.0379538,0.0033679,0.0700003,-0.0219325,0.0331609,-0.062
 604,-0.019132,-0.0007055,-0.0384775,-0.0851539,-0.0049804,-0.0191613,-
 0.0023189,0.0179077\Polar=70.5818705,-7.6196074,52.7980313,-0.2130718,
 0.0506063,46.0735843\PG=C01 [X(C3H7N1O2)]\NImag=0\\0.05897093,-0.03102
 957,0.31202307,0.00105042,-0.03890337,0.05133894,0.00342075,-0.0026863
 2,-0.00391810,0.52414052,0.00106759,0.00096507,0.00177604,-0.18922259,
 0.10955918,0.00582894,-0.00312973,-0.00249672,-0.35124349,0.04774978,0
 .53732998,-0.00481506,0.00073606,0.00311835,-0.49661113,0.17982353,0.3
 3697752,0.60643879,0.00098947,-0.00034481,-0.00134666,0.18314221,-0.08
 992079,-0.09135162,-0.24842458,0.12194597,-0.00049852,0.00026670,-0.00
 039846,0.32377014,-0.08458094,-0.35759993,-0.31848243,0.10392064,0.278
 03325,-0.01630841,0.01070281,0.01096914,0.01894718,-0.00161294,-0.0106
 2802,-0.10707220,0.05474044,0.00505678,0.28185911,0.03151471,-0.006752
 37,-0.02082609,-0.01269340,-0.00074995,0.06796550,0.05805849,-0.034066
 06,-0.02773322,-0.09471823,0.10398609,-0.00239556,-0.00103931,0.002776
 08,0.03242274,0.04094689,-0.19636613,-0.00842421,-0.01902614,0.0752449
 0,-0.09867719,-0.01119495,0.27062243,0.00380769,0.00097386,-0.00052551
 ,0.00069405,-0.00541420,0.00331476,-0.00143332,0.00217243,0.00000702,-
 0.04790598,-0.00491965,0.00059962,0.51150249,-0.02582349,-0.01442633,-
 0.01098753,0.00086320,0.00185913,-0.00044296,0.00259473,-0.00280550,-0
 .00106636,0.00727247,0.00793234,0.00697548,-0.03287447,0.47706767,0.00
 441840,0.00380589,0.00092128,-0.00315639,0.00426097,-0.00158093,0.0038
 1159,-0.00291128,-0.00093118,0.02132379,0.00576278,0.00976697,-0.01796
 965,0.00167299,0.55947566,0.00072563,0.00044130,0.00068939,-0.00129403
 ,0.00095610,-0.00010731,0.00053274,-0.00019338,-0.00010181,0.00342267,
 -0.00011863,0.00056125,-0.04754633,0.00658051,-0.03326516,0.05137168,0
 .00068070,0.00049781,-0.00018499,0.00002160,0.00020337,0.00007109,-0.0
 0013483,0.00000644,0.00011073,0.00096772,-0.00004301,0.00079993,0.0060
 4529,-0.04937577,0.04153643,-0.00473281,0.05907372,-0.00015289,-0.0003
 2006,0.00034939,-0.00020043,-0.00017770,-0.00008936,0.00006209,0.00017
 069,0.00002990,0.00051130,0.00016079,0.00136291,-0.03563548,0.04137134
 ,-0.28023254,0.04111218,-0.04521729,0.30381233,0.00072349,-0.00033105,
 0.00043262,0.00161465,-0.00223244,0.00097374,-0.00154029,0.00120635,0.
 00048265,-0.00571105,-0.00199651,-0.00359510,-0.19992792,0.06980697,0.
 09631311,0.00367545,-0.00210340,-0.00251682,0.21927775,0.00065014,0.00
 017844,0.00049235,0.00107024,-0.00137403,0.00058353,-0.00144365,0.0009
 4049,0.00045102,-0.00505043,-0.00015498,-0.00190456,0.07007121,-0.0715
 8084,-0.04446428,-0.00395037,0.00061439,0.00210644,-0.07616599,0.08372
 708,0.00039888,0.00025117,0.00036089,-0.00032647,-0.00031155,0.0002823
 5,-0.00015316,0.00045256,-0.00004368,-0.00226153,-0.00098778,0.0003589
 3,0.09836342,-0.04406588,-0.10236318,0.02314066,-0.00960419,-0.0133681
 0,-0.10566534,0.04765691,0.10768568,-0.04173338,0.02479173,-0.00786686
 ,-0.05307630,0.02146905,0.01052317,0.00547979,0.00499876,-0.00898267,-
 0.12445222,0.02615248,0.04818197,-0.13758816,-0.05565270,-0.04185617,-
 0.00752010,-0.00269256,-0.00208642,-0.01915466,-0.01037305,-0.00776629
 ,0.43000411,0.01997273,-0.28870781,0.04452850,0.02044333,-0.02233649,-
 0.01758639,0.00932584,0.00489794,0.00705801,0.02271777,-0.07302914,-0.
 00475717,-0.05095891,-0.11327555,-0.02251065,0.00263748,0.00170746,0.0
 0046377,0.01051649,0.00475356,0.00340481,-0.01486537,0.57179077,-0.004
 54057,0.04009543,-0.05179395,0.01087579,-0.01385079,0.01965259,-0.0175
 8027,0.01001828,0.00699667,0.05966572,-0.01125813,-0.13988621,-0.03973
 579,-0.02661211,-0.09467710,-0.02781147,-0.01883489,-0.01130690,0.0144
 5342,0.00873176,0.00303062,0.05185624,-0.04010041,0.52921641,-0.000294
 99,-0.00042199,-0.00267623,0.00073302,-0.00390604,0.00512532,0.0000995
 3,0.00101544,-0.00211519,-0.00559372,0.00102374,0.03267875,-0.00607723
 ,0.00309710,-0.02571571,-0.00340685,-0.00313085,-0.00096218,0.00056271
 ,0.00034923,0.00046285,-0.05206246,0.01000603,-0.05239508,0.06477833,0
 .00501510,-0.00301088,0.02620685,0.00088406,0.00064721,-0.00348161,-0.
 00045071,-0.00057529,0.00161483,0.00131943,0.00213363,-0.00995110,-0.0
 0434457,0.00160944,-0.01621553,-0.00271099,-0.00108919,-0.00130361,0.0
 0071706,0.00033904,0.00049702,0.00862111,-0.05485403,0.04666453,-0.009
 47849,0.05279092,-0.00163557,0.00035695,-0.00192078,-0.00864818,0.0042
 3960,0.00087799,0.00124332,-0.00008662,-0.00137914,0.01398163,-0.00296
 820,-0.02415687,-0.00426103,0.00148197,-0.00845141,-0.00113573,-0.0002
 9099,0.00102327,-0.00044188,-0.00006289,0.00012484,-0.04431732,0.04101
 464,-0.26331730,0.04430690,-0.04325761,0.29589194,0.00012974,0.0002730
 7,0.00003179,0.00011297,-0.00016729,-0.00015202,0.00006953,0.00000865,
 0.00016258,0.00022569,-0.00031094,-0.00020366,0.00426167,0.00391355,0.
 00199136,0.00006307,-0.00044460,0.00018109,0.00055518,-0.00033760,0.00
 010646,0.00014528,0.00122322,0.00016196,0.00003593,0.00008697,0.000077
 29,0.23496722,-0.00168682,-0.00097991,-0.00036913,0.00092477,-0.000420
 57,0.00026009,-0.00070526,0.00022486,0.00018741,0.00022593,0.00095399,
 -0.00042818,-0.02583249,-0.01490252,-0.00967664,-0.00014218,0.00098259
 ,0.00040300,0.00007463,0.00104920,-0.00059410,0.00258023,-0.00660326,0
 .00167470,0.00036497,0.00015655,0.00014038,0.11520100,0.11610231,0.000
 14126,0.00005764,0.00040819,-0.00046973,-0.00019132,-0.00057501,0.0001
 0879,0.00004904,0.00017419,-0.00013126,0.00054214,0.00046006,0.0055296
 1,0.00285393,0.00029354,0.00040957,-0.00021900,0.00017627,-0.00019924,
 -0.00036551,-0.00000183,0.00026741,0.00064382,-0.00009093,0.00023628,0
 .00022144,0.00030983,0.06681137,0.03886308,0.06398833,-0.00010649,-0.0
 0000628,-0.00002022,0.00051754,0.00015418,0.00071536,-0.00010383,-0.00
 002894,-0.00025082,-0.00045368,0.00015816,-0.00068390,-0.00174226,0.00
 065174,-0.00361814,0.00076114,0.00062935,0.00012043,-0.00016809,-0.000
 12567,-0.00047336,0.00083183,-0.00033024,0.00144773,0.00022040,0.00024
 150,-0.00022237,-0.00326203,0.00518729,-0.02371412,0.04728713,0.000331
 20,0.00029656,-0.00044902,-0.00032771,0.00012396,0.00013559,0.00015528
 ,-0.00005882,-0.00015916,-0.00006568,-0.00006257,-0.00025435,0.0045605
 2,-0.00790418,0.03248564,0.00041612,-0.00603126,0.00062847,0.00011420,
 0.00117028,-0.00025732,0.00124934,0.00197360,0.00182214,-0.00064475,0.
 00029334,-0.00118624,-0.00086927,0.00179289,-0.01451894,-0.00866149,0.
 05607424,0.00005210,-0.00004222,0.00023702,-0.00102832,0.00004571,-0.0
 0099658,0.00043358,-0.00001087,0.00019940,0.00083372,0.00016159,0.0003
 9604,-0.00059732,0.00168643,-0.00500618,-0.00042938,0.00072577,0.00153
 016,-0.00010453,0.00031285,0.00053003,-0.00043059,-0.00079739,0.001142
 74,0.00080006,0.00087281,-0.00001312,0.00027777,0.00119888,-0.00698990
 ,0.04157488,-0.04834767,0.30625706,0.00000087,0.00011671,0.00008696,-0
 .00055404,0.00017987,0.00015117,0.00008857,-0.00016676,-0.00014397,0.0
 0036223,-0.00124893,-0.00026286,-0.00214320,0.00235084,0.00062639,0.00
 008158,0.00021398,-0.00004738,0.00086277,0.00012323,-0.00056168,-0.000
 51588,-0.00038578,-0.00018241,0.00007411,0.00007075,-0.00008956,-0.017
 72740,0.00938168,0.01303593,0.00382675,-0.00290968,-0.00353144,0.21193
 613,-0.00003170,0.00026467,0.00020343,-0.00201545,0.00023109,-0.000202
 23,0.00030158,-0.00013424,-0.00035624,-0.00037728,0.00114357,0.0010083
 3,0.02461329,-0.01389805,-0.01665563,-0.00008703,0.00121000,0.00004599
 ,-0.00022185,-0.00578393,0.00128648,0.00236758,0.00023162,-0.00087970,
 -0.00005524,-0.00009623,0.00005430,-0.01125497,0.00504261,0.00861596,-
 0.00468843,0.00087740,0.00253027,-0.08153604,0.08677854,-0.00013434,-0
 .00002349,0.00001292,0.00083524,-0.00002125,0.00065182,-0.00067959,-0.
 00001904,-0.00004731,-0.00053482,0.00050796,-0.00035437,-0.00613395,0.
 00206567,0.00298595,-0.00052568,-0.00037897,0.00053712,-0.00025426,0.0
 0171631,0.00090653,0.00107997,-0.00055764,-0.00020287,0.00013539,0.000
 04687,-0.00010247,-0.00765824,0.00415741,0.00386960,0.02263120,-0.0105
 7475,-0.01365132,-0.11175057,0.05239201,0.11589470,-0.00452077,-0.0035
 6032,-0.00137175,0.00135482,-0.00109482,-0.00147914,-0.00113313,0.0005
 3989,0.00109626,0.00268042,-0.00090129,-0.00020185,-0.07590150,0.01721
 956,-0.00290342,-0.00086665,0.00468044,-0.00038550,-0.00077000,0.02518
 272,-0.00526444,-0.00035786,-0.03030257,0.00378474,0.00093123,0.000028
 78,0.00114248,-0.21957684,-0.10557374,-0.06202587,-0.04760841,0.006651
 93,-0.03785053,-0.19629250,0.07298553,0.10298962,0.54206120,-0.0016500
 7,-0.00000349,-0.00014037,-0.00040394,0.00121283,-0.00057104,0.0001635
 3,-0.00011018,0.00028658,0.00387800,-0.00129154,-0.00117487,0.01590769
 ,-0.20029983,0.02290930,0.00090389,-0.00775655,0.00166817,0.00061554,-
 0.01387868,0.00227188,-0.00864659,-0.02654867,0.00252919,0.00178085,0.
 00165549,0.00056472,-0.10732179,-0.10339872,-0.03655228,0.00681884,-0.
 04854544,0.04166382,0.07381014,-0.07586705,-0.04931109,0.01414391,0.47
 483184,-0.00253256,-0.00137561,0.00020521,0.00108720,0.00011455,0.0009
 0994,-0.00043557,0.00014102,-0.00027861,-0.00010927,-0.00013239,-0.000
 22474,-0.00295572,0.02506704,-0.08020085,-0.00253652,0.03148636,-0.003
 82444,0.00012163,-0.01525393,0.00249692,0.00139754,-0.01080388,0.00123
 624,0.00011885,-0.00191490,0.00111323,-0.06178775,-0.03581690,-0.06202
 233,-0.03750665,0.04067562,-0.28363535,0.10266942,-0.04804297,-0.11050
 031,0.00246939,0.01585599,0.53472509\\-0.00000036,-0.00001109,0.000012
 97,0.00010196,-0.00003747,0.00007315,-0.00002066,-0.00002802,0.0000003
 7,-0.00013904,0.00007845,-0.00007124,-0.00000691,0.00001190,-0.0000093
 2,0.00002038,-0.00000411,-0.00000257,0.00000046,-0.00000965,-0.0000111
 2,0.00005895,0.00000606,-0.00001188,-0.00000458,-0.00000346,0.00000465
 ,-0.00001404,0.00000470,0.00001111,0.00000262,0.00000329,0.00000539,-0
 .00000335,-0.00000449,-0.00000388,0.00000457,-0.00000609,0.00000235\\\
 @


 Change starts when someone sees the next step.
                            -- William Drayton
 Job cpu time:       0 days  0 hours  4 minutes 47.4 seconds.
 File lengths (MBytes):  RWF=     39 Int=      0 D2E=      0 Chk=      3 Scr=      1
 Normal termination of Gaussian 09 at Fri May 16 14:31:10 2014.
