  MPI-parallelism will be employed.
------------------------------------------------------------
          Invoking FHI-aims ...
          Version 090214
          Git rev. (modified): 8e4ee64 DMFT embedding: slight changes
          Compiled on 2014/10/10 at 16:47:43 on host theobook103.

          When using FHI-aims, please cite the following reference:

          Volker Blum, Ralf Gehrke, Felix Hanke, Paula Havu,
          Ville Havu, Xinguo Ren, Karsten Reuter, and Matthias Scheffler,
          'Ab Initio Molecular Simulations with Numeric Atom-Centered Orbitals: FHI-aims',
          Computer Physics Communications 180, 2175-2196 (2009)

          For any questions about FHI-aims, please visit the aimsclub website
          with its forums and wiki. Contributions to both the forums and the
          wiki are warmly encouraged - they are for you, and everyone is welcome there.

------------------------------------------------------------

  Date     :  20141010, Time     :  184030.815
  Time zero on CPU 1             :   0.373180000000000E-01  s.
  Internal wall clock time zero  :           182198430.815  s.

  Using        8 parallel tasks.
  Task        0 on host theobook103 reporting.
  Task        1 on host theobook103 reporting.
  Task        2 on host theobook103 reporting.
  Task        3 on host theobook103 reporting.
  Task        4 on host theobook103 reporting.
  Task        5 on host theobook103 reporting.
  Task        6 on host theobook103 reporting.
  Task        7 on host theobook103 reporting.

  Performing system and environment tests:
  *** Environment variable OMP_NUM_THREADS is not set
  *** For performance reasons you might want to set it to 1
  | Stacksize not measured: no C compiler
  | Checking for scalapack...
  | No scalapack compiled in.

  Obtaining array dimensions for all initial allocations:
  
  -----------------------------------------------------------------------
  Parsing control.in (first pass over file, find array dimensions only).
  The contents of control.in will be repeated verbatim below
  unless switched off by setting 'verbatim_writeout .false.' .
  in the first line of control.in .
  -----------------------------------------------------------------------
  
  #################################
    xc             pbe
  #  xc             hf
  #  sc_self_energy dmft_pbe0 0.5 0.25
  # sc_self_energy dmft_gw 0.5
    sc_self_energy scgw
  #   qpe_calc gw
  ################################# Periodic
  #  k_grid 12 12 12
  #  k_grid 12 12 12
    #k_grid 8 8 8
   #k_grid  4 4 4
  #k_grid 2 2 2
  #  k_grid 4 4 4
  #  use_hf_kspace     .true.
    RI_method       V
  ################################# RPA and GW
  #  total_energy_method rpa
  #  qpe_calc gw
  #  state_upper_limit 10000
    frequency_points 20
    time_points 20
    maximum_frequency 7000
    maximum_time 1000
  ################################# Spin
    spin none
  #  multiplicity   3
  #  default_initial_moment 0
  ################################# Convergence
    occupation_type gaussian 0.1
    mixer          pulay
    charge_mix_param  0.5
    n_max_pulay       10
  #  preconditioner kerker 1.5
    sc_accuracy_rho  1E-5
    sc_accuracy_eev  1E-3
    sc_accuracy_etot 1E-6
    sc_iter_limit 100
  ################################# Performance
  #  relativistic   zora scalar 1e-12
    relativistic  none
  #  KS_method      scalapack
  #  basis_threshold 1.e-5
  #  prodbas_threshold 1.e-4
  #  occupation_acc 1e-08
  #  partition_acc 1e-20
    override_illconditioning .true.
    output dos -100 100  15000  0.002
  ################################################################################
  ################################################################################
  #
  #  FHI-aims code project
  #  VB, Fritz-Haber Institut, 2009
  #
  #  Suggested "light" defaults for He atom (to be pasted into control.in file)
  #  Be sure to double-check any results obtained with these settings for post-processing,
  #  e.g., with the "tight" defaults and larger basis sets.
  #
  ################################################################################
    species        He
  #     global species definitions
      nucleus             2
      mass                4.002602
  #
      l_hartree           4
  #
      cut_pot             3.5  1.5  1.0
      basis_dep_cutoff    1e-4
  #
      radial_base         27 5.0
      radial_multiplier   1
      angular_grids       specified
        division   0.3349  110
        division   0.4719  194
        division   0.5352  302
  #      division   1.8809  770
  #      outer_grid    770
        outer_grid    302
  ################################################################################
  #
  #  Definition of "minimal" basis
  #
  ################################################################################
  #     valence basis states
      valence      1  s   2.
  #     ion occupancy
      ion_occ      1  s   1.
  ################################################################################
  #
  #  Suggested additional basis functions. For production calculations,
  #  uncomment them one after another (the most important basis functions are
  #  listed first).
  #
  #  Constructed for dimers: 1.25 A, 1.75 A, 2.40 A, 3.25 A
  #
  #  Noble gas symmetric dimers converge quickly in DFT. If you find that
  #  you require a larger basis than tier 2, please contact us - VB, FHI.
  #
  ################################################################################
  #  "First tier" - improvements: -33.45 meV to -13.84 meV
       hydro 1 s 0.85
       hydro 2 p 3.5
  #  "Second tier" - improvements: -0.70 meV to -0.05 meV
  #     hydro 3 d 7.2
  #     hydro 3 s 3
  #     hydro 3 p 4.9
  #     hydro 4 f 12
  
  -----------------------------------------------------------------------
  Completed first pass over input file control.in .
  -----------------------------------------------------------------------
  
  
  -----------------------------------------------------------------------
  Parsing geometry.in (first pass over file, find array dimensions only).
  The contents of geometry.in will be repeated verbatim below
  unless switched off by setting 'verbatim_writeout .false.' .
  in the first line of geometry.in .
  -----------------------------------------------------------------------
  
  # Geometry of NiO the Bulk
  #atom         1.0        1.0       1.0  He
  #atom         3.40        3.40       3.40  He
  atom         0.00000000        0.00000000        0.00000000  He
  #atom         2.40              0.00        0.00 He
  #atom         2.40              2.40        0.0 He
  #atom         0.00              2.40        0.00 He
  #atom         0.00             0.00        2.40  He
  #atom         2.40              0.00        2.40 He
  #atom         2.40              2.40        2.40 He
  #atom         0.00              2.40        2.40 He
  #atom         2.40              4.80        0.00 He
  #atom         0.00              4.80        0.00 He
  #atom         2.40              4.80        2.40 He
  #atom         0.00              4.80        2.40 He
  
  
  
  
  #atom         0.00              0.00        4.80 He
  #atom         0.00              4.80        0.00 He
  #atom         4.80              0.00        0.00 He
  #atom         4.80              4.80        4.80 He
  #atom         0.00              0.00        7.20 He
  #atom         0.00              7.20        0.00 He
  #atom         7.20              0.00        0.00 He
  #atom         7.20              7.20        7.20 He
  #atom         0.00              0.00        9.60 He
  #atom         0.00              9.60        0.00 He
  #atom         9.60              0.00        0.00 He
  #atom         9.60              9.60        9.60 He
  
  #atom         4.80              4.80        4.80 He
  #atom         7.20              7.20        7.20 He
  #atom         2.40              2.40        2.40 He
  #atom         1.20000000        1.20000000        1.20000000 He
  #atom         1.80    1.80    1.80  C
  #lattice_vector    0.000    0.000  6.830
  #lattice_vector    0.000    6.830     0.000
  #lattice_vector  6.830   0.000    0.000
  #lattice_vector  1.99 1.99 0.0
  #lattice_vector  0.0  1.99 1.99
  #lattice_vector  1.99 0.0  1.99
  #lattice_vector    0.000    0.000    2.40
  #lattice_vector    0.000    2.40     0.000
  #lattice_vector    2.40    0.000    0.000
  #lattice_vector    0.000    0.000    2.40
  #lattice_vector    0.000    2.40     0.000
  #lattice_vector    2.40    0.000    0.000
  #lattice_vector    0.000    2.40     0.000
  #lattice_vector    0.000    0.000    2.40
  #lattice_vector    10.40    0.000    0.000
  #lattice_vector    0.000    10.40     0.000
  #lattice_vector    0.000    0.000    10.40
  #lattice_vector    -1.200    1.200    1.20
  #lattice_vector    1.200    -1.20     1.200
  #lattice_vector    1.20    1.200    -1.200
  #lattice_vector    -2.400    2.400    2.40
  #lattice_vector    2.400    -2.40     2.400
  #lattice_vector    2.40    2.400    -2.400
  #lattice_vector    0.000    0.000    5.5
  #lattice_vector    0.000   5.5     0.000
  #lattice_vector   5.5    0.000    0.000
  #atom    1.350    1.350    1.350  C
  #lattice_vector    3.4300    3.4300    0.0
  #lattice_vector    3.4300     0.0     0.0
  #lattice_vector      0.0    3.4300    3.4300
  #lattice_vector    2.700    2.700    0.0
  #lattice_vector    2.700     0.0     2.700
  #lattice_vector      0.0    2.700    2.700
  
  #atom 0.0 0.0 0.0   Si
  #atom    1.350    1.350    1.350   Si
  #lattice_vector    20.700    20.700    0.0
  #lattice_vector    20.700     0.0     20.700
  #lattice_vector      0.0    20.700    20.700
  
  -----------------------------------------------------------------------
  Completed first pass over input file geometry.in .
  -----------------------------------------------------------------------
  

  Basic array size parameters:
  | Number of species                 :        1
  | Number of atoms                   :        1
  | Max. basis fn. angular momentum   :        1
  | Max. atomic/ionic basis occupied n:        1
  | Max. number of basis fn. types    :        2
  | Max. radial fns per species/type  :        2
  | Max. logarithmic grid size        :     1187
  | Max. radial integration grid size :       27
  | Max. angular integration grid size:      302
  | Max. angular grid division number :        8
  | Radial grid for Hartree potential :     1187
  | Number of spin channels           :        1

------------------------------------------------------------
          Reading file control.in.
------------------------------------------------------------
  XC: Using PBE gradient-corrected functionals.
  Self Consistent GW calculation of excited states will be started after the DFT/HF calculation.
 The 'V' version of RI (resolution of identity) technique is used.
  Number of frequency points used for the self-energy calculation:     20
  Number of time points used for the self-energy calculation:     20
  Maximum frequency for the self-energy:        7000.00  Ha.
  Maximum time for the self-energy:        1000.00
  Spin treatment: No spin polarisation.
  Occupation type: Gaussian broadening, width =   0.100000E+00 eV.
  Using pulay charge density mixing.
  Charge density mixing - mixing parameter:     0.5000
  Pulay mixing - number of memorized iterations:   10
  Convergence accuracy of self-consistent charge density: 0.1000E-04
  Convergence accuracy of sum of eigenvalues: 0.1000E-02
  Convergence accuracy of total energy: 0.1000E-05
  Maximum number of s.-c. iterations  :   100
  Non-relativistic treatment of kinetic energy.
  override_illconditioning: Explicitly overriding any built-in checks for an ill-conditioned overlap matrix.
  *** WARNING: If you use this flag, you should really know what you are doing.
  *** DO NOT keep this flag set by default in all your control.in files.
  Calculating density of states with
  | energy interval :**********100.000000
  | points & broadening : 15000  0.002000
 
  Reading configuration options for species He                  .
  | Found nuclear charge :   2.0000
  | Found atomic mass :    4.00260200000000      amu
  | Found l_max for Hartree potential  :   4
  | Found cutoff potl. onset [A], width [A], scale factor :    3.50000    1.50000    1.00000
  | Threshold for basis-dependent cutoff potential is   0.100000E-03
  | Found data for basic radial integration grid :    27 points, outermost radius =    5.000 A
  | Found multiplier for basic radial grid :   1
  | Found angular grid specification: user-specified.
  | Specified grid contains     4 separate shells.
  | Check grid settings after all constraints further below.
  | Found free-atom valence shell :  1 s   2.000
  | No ionic wave fns used. Skipping ion_occ.
  | Found hydrogenic basis function :  1 s   0.850
  | Found hydrogenic basis function :  2 p   3.500
  Species He                  : Missing cutoff potential type.
  Defaulting to exp(1/x)/(1-x)^2 type cutoff potential.
  Species He: No 'logarithmic' tag. Using default grid for free atom:
  | Default logarithmic grid data [bohr] : 0.1000E-03 0.1000E+03 0.1012E+01
  Species He: On-site basis accuracy parameter (for Gram-Schmidt orthonormalisation) not specified.
  Using default value basis_acc =  0.1000000E-03.
  Species He                  : Using default innermost maximum threshold i_radial=  2 for radial functions.
  Species He                  : Default cutoff onset for free atom density etc. is infinite
  since the product basis is used (hybrid functionals, Hartree-Fock, GW etc.).
  Species He                  : Basic radial grid will be enhanced according to radial_multiplier =   1, to contain    27 grid points.
 
  Finished reading input file 'control.in'. Consistency checks are next.
 
  Species He: Using default value for prodbas_acc =   1.000000E-02.
  Species He: Using default value max_l_prodbas =     5.
  Target number of points in a grid batch is not set. Defaulting to  100
  Method for grid partitioning is not set. Defaulting to parallel hash+maxmin partitioning.
  Batch size limit is not set. Defaulting to    200
  By default, will store active basis functions for each batch.
  If in need of memory, prune_basis_once .false. can be used to disable this option.
  communication_type for Hartree potential was not specified.
  Defaulting to calc_hartree .
  Pulay mixer: Number of initial linear mixing iterations not set.
  Defaulting to    0 iterations.
  Work space size for distributed Hartree potential not set.
  Defaulting to   0.200000E+03 MB.
  Algorithm-dependent basis array size parameters:
  | n_max_pulay                         :       10
  Calculation of forces was not defined in control.in. No forces will be calculated.
  Geometry relaxation not requested: no relaxation will be performed.
  No accuracy limit for integral partition fn. given. Defaulting to 0.1000E-14.
  No threshold value for u(r) in integrations given. Defaulting to 0.1000E-05.
  No accuracy for occupation numbers given. Defaulting to 0.1000E-07.
  No threshold value for occupation numbers given. Defaulting to 0.0000E+00.
  No accuracy for fermi level given. Defaulting to 0.1000E-19.
  Maximum # of iterations to find E_F not set. Defaulting to  200.
  Preferred method for the eigenvalue solver ('KS_method') not specified in 'control.in'.
  Calling blacs routine to test compilation state
  The best choice would be 'elpa', but your version of FHI-aims is compiled without scalapack support.
  Defaulting to 'lapack_fast' instead (serial solution, time will not improve with more CPUs).
  Will not use alltoall communication since running on < 1024 CPUs.
  Threshold for basis singularities not set.
  Default threshold for basis singularities: 0.1000E-04
  partition_type (choice of integration weights) for integrals was not specified.
  | Using a version of the partition function of Stratmann and coworkers ('stratmann_smoother').
  | At each grid point, the set of atoms used to build the partition table is smoothly restricted to
  | only those atoms whose free-atom density would be non-zero at that grid point.
  Partitioning for Hartree potential was not defined. Using partition_type for integrals.
  | Adjusted default value of keyword multip_moments_threshold to:       0.10000000E-11
  | This value may affect high angular momentum components of the Hartree potential in periodic systems.
  Threshold for auxiliary basis singularities not set.
  Default threshold for auxiliary basis singularities: 0.1000E-04
  No q(lm)/r^(l+1) cutoff set for long-range Hartree potential.
  | Using default value of  0.100000E-09 .
  | Verify using the multipole_threshold keyword.
  Defaulting to new monopole extrapolation.
  Density update method: automatic selection selected.
  Default to 1D ("use_logsbt") integrations for auxiliary 2-center integrals.
  Default onset of logarithmic r-grid for SBT is-38.000000000000
  Default onset of logarithmic k-grid for SBT is-25.000000000000
  Default range of logarithmic r- and k-grid for SBT is 45.000000000000
  Default number of logarithmic r- and k-grid for SBT is  4096
------------------------------------------------------------


------------------------------------------------------------
          Reading geometry description geometry.in.
------------------------------------------------------------
  Input structure read successfully.
  The structure contains        1 atoms,  and a total of          2.000 electrons.

  Input geometry:
  | No unit cell requested.
  | Atomic structure:
  |       Atom                x [A]            y [A]            z [A]
  |    1: Species He             0.000000         0.000000         0.000000
  |

  | Isolated single atom, no quantum-mechanical atoms close by.

  Number of empty states per atom not set in control.in .
  | Since you are using a method that relies on the unoccupied spectrum
  | (MP2,GW,RPA et al.), will use the full Hamiltonian size (see below)
  | as the max. possible number of states (occupied plus empty).

  Structure-dependent array size parameters: 
  | Maximum number of distinct radial functions  :        3
  | Maximum number of basis functions            :        5
  | Number of Kohn-Sham states (occupied + empty):        5
------------------------------------------------------------

------------------------------------------------------------
          Preparing all fixed parts of the calculation.
------------------------------------------------------------
  Determining machine precision:
    2.225073858507201E-308
  Setting up grids for atomic and cluster calculations.

  Creating wave function, potential, and density for free atoms.

  Species: He

  List of occupied orbitals and eigenvalues:
    n    l              occ      energy [Ha]    energy [eV]
    1    0           2.0000        -0.579291       -15.7633

  Creating fixed part of basis set: Ionic, confined, hydrogenic.
 
  He                   hydrogenic:
 
  List of hydrogenic basis orbitals: 
    n    l      effective z      eigenvalue [eV]  inner max. [A]     outer max. [A]     outer radius [A]   
    1    0         0.850000        -9.8241           0.619553           0.619553           4.544486
    2    1         3.500000       -41.6670           0.604588           0.604588           3.737119
 

  Adding cutoff potential to free-atom effective potential.
  Creating atomic-like basis functions for current effective potential.

  Species He                  :

  List of atomic basis orbitals and eigenvalues:
    n    l      energy [Ha]    energy [eV]    outer radius [A]
    1    0        -0.579290       -15.7633       4.434721

  Assembling full basis from fixed parts.
  | Species He :   atomic orbital   1 s accepted.
  | Species He :    hydro orbital   1 s accepted.
  | Species He :    hydro orbital   2 p accepted.
 
  Basis size parameters after reduction:
  | Total number of radial functions:        3
  | Total number of basis functions :        5
 
  Testing on-site integration grid accuracy.
  |  Species  Function  <phi|h_atom|phi> (log., in eV)  <phi|h_atom|phi> (rad., in eV)
           1        1                -15.7632854469                -15.7632784781
           1        2                 11.5960677754                 11.5991495475
           1        3                 23.5590693386                 23.5590719828

  Preparing densities etc. for the partition functions (integrals / Hartree potential).

  Preparations completed.
  max(cpu_time)          :      0.080 s.
  Wall clock time (cpu1) :      0.104 s.
------------------------------------------------------------

------------------------------------------------------------
          Begin self-consistency loop: Initialization.

          Date     :  20141010, Time     :  184030.934
------------------------------------------------------------

  Initializing index lists of integration centers etc. from given atomic structure:
  | Number of centers in hartree potential         :         1
  | Number of centers in hartree multipole         :         1
  | Number of centers in electron density summation:         1
  | Number of centers in basis integrals           :         1
  | Number of centers in integrals                 :         1
  Partitioning the integration grid into batches with parallel hashing+maxmin method.
  | Number of batches:       72
  | Maximal batch size:      99
  | Minimal batch size:      55
  | Average batch size:      80.917
  | Standard deviation of batch sizes:      14.970

  Integration load balanced across     8 MPI tasks.
  Work distribution over tasks is as follows:
  Task     0 has        709 integration points.
  Task     1 has        734 integration points.
  Task     2 has        724 integration points.
  Task     3 has        730 integration points.
  Task     4 has        724 integration points.
  Task     5 has        728 integration points.
  Task     6 has        730 integration points.
  Task     7 has        747 integration points.
  Initializing partition tables, free-atom densities, potentials, etc. across the integration grid (initialize_grid_storage).
  | Original list of interatomic distances with           1 x          1 entries is created.
  | Net number of integration points:     5826
  | of which are non-zero points    :     5826
  Obtaining max. number of non-zero basis functions in each batch (get_n_compute_maxes).
  | Maximal number of non-zero basis functions:        5 in task     0
  | Maximal number of non-zero basis functions:        5 in task     1
  | Maximal number of non-zero basis functions:        5 in task     2
  | Maximal number of non-zero basis functions:        5 in task     3
  | Maximal number of non-zero basis functions:        5 in task     4
  | Maximal number of non-zero basis functions:        5 in task     5
  | Maximal number of non-zero basis functions:        5 in task     6
  | Maximal number of non-zero basis functions:        5 in task     7
  Selecting the method for density update.
  Loop over occupied states selected for charge density update.
  Integrating Hamiltonian matrix: batch-based integration.
  Time summed over all CPUs for integration: real work        0.011 s, elapsed        0.011 s
  Integrating overlap matrix.
  Time summed over all CPUs for integration: real work        0.002 s, elapsed        0.003 s

  Updating Kohn-Sham eigenvalues, eigenvectors, occupation numbers, and Fermi level.
  Solving generalized eigenproblem
  Updating Kohn-Sham eigenvalues and eigenfunctions.
  Transforming overlap matrix and checking for singularities.
  Overlap matrix is nonsingular:
  | Lowest eigenvalue:  0.999871E+00
  Solving real generalised eigenvalue problem by standard LAPACK (fast)
  Determining occupation numbers for Kohn-Sham eigenstates.
  | Chemical potential (Fermi level) in eV                 : -.92095489E+01
  | Error in electron count due to remaining E_F inaccuracy: 0.00000000E+00
  | Maximum occupation number of highest empty state:  0.00E+00

  Writing Kohn-Sham eigenvalues.

  State    Occupation    Eigenvalue [Ha]    Eigenvalue [eV]
      1       2.00000          -0.579290          -15.76328
      2       0.00000           0.426316           11.60065
      3       0.00000           0.865781           23.55909
      4       0.00000           0.865781           23.55909
      5       0.00000           0.865781           23.55909

  Highest occupied state (VBM) at    -15.76327730 eV
  | Occupation number:      2.00000000

  Lowest unoccupied state (CBM) at    11.60065487 eV
  | Occupation number:      0.00000000

  Overall HOMO-LUMO gap:     27.36393217 eV.
  Calculating total energy contributions from superposition of free atom densities.

  Total energy components:
  | Sum of eigenvalues            :          -1.15857959 Ha         -31.52655459 eV
  | XC energy correction          :          -1.04616222 Ha         -28.46752230 eV
  | XC potential correction       :           1.33854608 Ha          36.42369213 eV
  | Free-atom electrostatic energy:          -2.02673733 Ha         -55.15032883 eV
  | Hartree energy correction     :           0.00000000 Ha           0.00000000 eV
  | Entropy correction            :           0.00000000 Ha           0.00000000 eV
  | ---------------------------
  | Total energy                  :          -2.89293305 Ha         -78.72071360 eV
  | Total energy, T -> 0          :          -2.89293305 Ha         -78.72071360 eV  <-- do not rely on this value for anything but (periodic) metals
  | Electronic free energy        :          -2.89293305 Ha         -78.72071360 eV

  Derived energy quantities:
  | Kinetic energy                :           2.85594924 Ha          77.71433284 eV
  | Electrostatic energy          :          -4.70272007 Ha        -127.96752414 eV
  | Energy correction for multipole
  | error in Hartree potential    :           0.00000000 Ha           0.00000000 eV
  | Sum of eigenvalues per atom                           :         -31.52655459 eV
  | Total energy (T->0) per atom                          :         -78.72071360 eV  <-- do not rely on this value for anything but (periodic) metals
  | Electronic free energy per atom                       :         -78.72071360 eV
  Initialize hartree_potential_storage
  Max. number of atoms included in rho_multipole:            1

  End scf initialization - timings             :  max(cpu_time)    wall_clock(cpu1)
  | Time for scf. initialization               :        0.009 s           0.009 s
  | Boundary condition initialization          :        0.000 s           0.000 s
  | Integration                                :        0.002 s           0.002 s
  | Solution of K.-S. eqns.                    :        0.000 s           0.001 s
  | Grid partitioning                          :        0.002 s           0.002 s
  | Preloading free-atom quantities on grid    :        0.002 s           0.002 s
  | Free-atom superposition energy             :        0.001 s           0.001 s
  | Total energy evaluation                    :        0.000 s           0.000 s
------------------------------------------------------------

------------------------------------------------------------
          Begin self-consistency iteration #    1

  Date     :  20141010, Time     :  184030.943
------------------------------------------------------------
  Evaluating new KS density.
  Integration grid: deviation in total charge (<rho> - N_e) =   1.776357E-15
  Pulay mixing of updated and previous charge densities.

  Evaluating partitioned Hartree potential by multipole expansion.
  | Analytical far-field extrapolation by fixed multipoles:
  | Hartree multipole sum: apparent total charge =  -0.400382E-06
  Summing up the Hartree potential.
  Time summed over all CPUs for potential: real work        0.017 s, elapsed        0.018 s
  | RMS charge density error from multipole expansion :   0.231994E-15

  Integrating Hamiltonian matrix: batch-based integration.
  Time summed over all CPUs for integration: real work        0.033 s, elapsed        0.114 s => Consider using load balancing!

  Updating Kohn-Sham eigenvalues, eigenvectors, occupation numbers, and Fermi level.
  Solving generalized eigenproblem
  Updating Kohn-Sham eigenvalues and eigenfunctions.
  Solving real generalised eigenvalue problem by standard LAPACK (fast)
  Determining occupation numbers for Kohn-Sham eigenstates.
  | Chemical potential (Fermi level) in eV                 : -.92094660E+01
  | Error in electron count due to remaining E_F inaccuracy: 0.00000000E+00
  | Maximum occupation number of highest empty state:  0.00E+00

  Writing Kohn-Sham eigenvalues.

  State    Occupation    Eigenvalue [Ha]    Eigenvalue [eV]
      1       2.00000          -0.579287          -15.76319
      2       0.00000           0.426321           11.60078
      3       0.00000           0.865783           23.55916
      4       0.00000           0.865783           23.55916
      5       0.00000           0.865783           23.55916

  Highest occupied state (VBM) at    -15.76319178 eV
  | Occupation number:      2.00000000

  Lowest unoccupied state (CBM) at    11.60077636 eV
  | Occupation number:      0.00000000

  Overall HOMO-LUMO gap:     27.36396814 eV.

  Total energy components:
  | Sum of eigenvalues            :          -1.15857330 Ha         -31.52638356 eV
  | XC energy correction          :          -1.04616425 Ha         -28.46757769 eV
  | XC potential correction       :           1.33854876 Ha          36.42376509 eV
  | Free-atom electrostatic energy:          -2.02673733 Ha         -55.15032883 eV
  | Hartree energy correction     :          -0.00000693 Ha          -0.00018864 eV
  | Entropy correction            :           0.00000000 Ha           0.00000000 eV
  | ---------------------------
  | Total energy                  :          -2.89293305 Ha         -78.72071364 eV
  | Total energy, T -> 0          :          -2.89293305 Ha         -78.72071364 eV  <-- do not rely on this value for anything but (periodic) metals
  | Electronic free energy        :          -2.89293305 Ha         -78.72071364 eV

  Derived energy quantities:
  | Kinetic energy                :           2.85594769 Ha          77.71429060 eV
  | Electrostatic energy          :          -4.70271649 Ha        -127.96742654 eV
  | Energy correction for multipole
  | error in Hartree potential    :           0.00000000 Ha           0.00000000 eV
  | Sum of eigenvalues per atom                           :         -31.52638356 eV
  | Total energy (T->0) per atom                          :         -78.72071364 eV  <-- do not rely on this value for anything but (periodic) metals
  | Electronic free energy per atom                       :         -78.72071364 eV

  Self-consistency convergence accuracy:
  | Change of charge density      : 0.4388E-05
  | Change of sum of eigenvalues  : 0.1710E-03 eV
  | Change of total energy        : -.3953E-07 eV

  Writing Kohn-Sham eigenvalues.

  State    Occupation    Eigenvalue [Ha]    Eigenvalue [eV]
      1       2.00000          -0.579287          -15.76319
      2       0.00000           0.426321           11.60078
      3       0.00000           0.865783           23.55916
      4       0.00000           0.865783           23.55916
      5       0.00000           0.865783           23.55916

  Highest occupied state (VBM) at    -15.76319178 eV
  | Occupation number:      2.00000000

  Lowest unoccupied state (CBM) at    11.60077636 eV
  | Occupation number:      0.00000000

  Overall HOMO-LUMO gap:     27.36396814 eV.

  Self-consistency cycle converged.

  End self-consistency iteration #     1       :  max(cpu_time)    wall_clock(cpu1)
  | Time for this iteration                    :        0.024 s           0.026 s
  | Charge density update                      :        0.002 s           0.003 s
  | Density mixing                             :        0.000 s           0.000 s
  | Hartree multipole update                   :        0.001 s           0.001 s
  | Hartree multipole summation                :        0.003 s           0.003 s
  | Integration                                :        0.014 s           0.014 s
  | Solution of K.-S. eqns.                    :        0.000 s           0.000 s
  | Total energy evaluation                    :        0.000 s           0.001 s
------------------------------------------------------------

  Energy and forces in a compact form:
  | Total energy uncorrected      :         -0.787207136400651E+02 eV
  | Total energy corrected        :         -0.787207136400651E+02 eV  <-- do not rely on this value for anything but (periodic) metals
  | Electronic free energy        :         -0.787207136400651E+02 eV

  Calculating total density of states ...
  | Chemical potential is  -9.209466 eV.
  | writing DOS (shifted by electron chemical potential) to file KS_dos_total.dat
  | writing DOS (raw data) to file KS_dos_total_raw.dat
  ------------------------------------ 
  Start decomposition of the XC Energy 
  ------------------------------------ 
  Hartree-Fock part   :          0.000000000 Ha              0.000000000 eV
  ------------------------------------ 
  X Energy            :         -1.005100435 Ha            -27.350174385 eV
  C Energy GGA        :         -0.041063817 Ha             -1.117403309 eV
  Total XC Energy     :         -1.046164251 Ha            -28.467577694 eV
  LDA X and C from self-consistent density 
  X Energy LDA        :         -0.875218062 Ha            -23.815895196 eV
  C Energy LDA        :         -0.111729651 Ha             -3.040318481 eV
  ------------------------------------ 
  End decomposition of the XC Energy 
  ------------------------------------ 
 
 --------------------------------------------
  Constructing auxiliary basis (full product) ...
 
  Product basis:
  | charge radius: extent of product basis function
  | field radius: extent of its Coulomb potential
  | Species   l  charge radius    field radius  multipol momen
  |    He     1     3.924405 A      3.924405 A  4.394685E-16 a.u.
  |    He     0     4.434721 A      4.489268 A  ************ a.u.
  |    He     0     4.544486 A      4.600383 A  8.329239E-17 a.u.
  |    He     2     3.691711 A  1.011981E+04 A            0.556550 a.u.
  |    He     1     3.972676 A  1.454502E+06 A            0.601197 a.u.
  |    He     0     4.544486 A  3.351800E+12 A            0.504042 a.u.

  | Shrink_full_auxil_basis : there are        6  radial auxiliary wave functions
                            accepted and       2 rejected.
  | Shrink_full_auxil_basis : there are totally      14 partial auxiliary wave functions.
 
  | Number of product basis functions per thread :     2
  | Minimal requirement for computer memories :           0.000 Gbs
 
  Basis pair condensation :        15  -->         15
 
 ----------------------------------------------------
  Integrating the 3-basis-function Coulomb matrix ...
  | i_atom:            1
  Integrating the Coulomb interaction matrix for auxiliary basis functions (by atoms)

  SBT integration errors (all should be 'small'):
  large logFT aliasing -> increase N/lnrange
  large SBT aliasing -> decrease lnk0 & increase lnk0+lnrange
  large SBT ringing -> decrease lnr0 & increase lnr0+lnrange
  |            El't  L: logFT-al.   small-k   large-k   small-r   large-r
  Atomic logSBT for 2-center Coulomb matrix    :  max(cpu_time)    wall_clock(cpu1)
  | Multiplication with kernel                 :        0.000 s           0.000 s
  | Main matrix multiplication                 :        0.000 s           0.000 s
  | Analytic angular integration               :        0.000 s           0.000 s
  | Kernel construction                        :        0.000 s           0.000 s
  | Overall 2-center overlap time              :        0.003 s           0.002 s

  Difference of Coulomb matrix to its transposed:  1.6975E-17
  Task     0: Eigenvalues of the Coulomb matrix range from    9.9999E-01 to    9.9990E-01.
  Task     0: Using       14   eigenvalues out of rank       14   Coulomb matrix (auxiliary basis).
 
  Multiplying V^-0.5 x ovlp_3fn (1d-scalapack)

  End of correlation preparation               :  max(cpu_time)    wall_clock(cpu1)
  | Product basis setup: Total time            :        0.092 s           0.092 s
  | Product basis: | 3-center integrations     :        0.007 s           0.011 s
  | Product basis: | 2-center integrations     :        0.071 s           0.071 s
  | Product basis: | 2-center linear algebra   :        0.001 s           0.001 s
  | Product basis: | 3-center x 2-center       :        0.000 s           0.001 s

--------------------------------------------
          Self-Consistent GW calculation starts ...
 
  Integrating the xc potential matrix  for basis functions ...
  ... setting chemical potential

  Initialising logarithmic time and frequency grids
  i_freq            1  0.000000000000000E+000
  i_freq            2  9.599947230134340E-003
  i_freq            3  2.841579334839647E-002
  i_freq            4  6.529475285296511E-002
  i_freq            5  0.137577319663478     
  i_freq            6  0.279250770728956     
  i_freq            7  0.556929990248362     
  i_freq            8   1.10117980115520     
  i_freq            9   2.16790657021194     
  i_freq           10   4.25868543134966     
  i_freq           11   8.35660101103063     
  i_freq           12   16.3884940104911     
  i_freq           13   32.1309620775871     
  i_freq           14   62.9861167540974     
  i_freq           15   123.462057759897     
  i_freq           16   241.994584298202     
  i_freq           17   474.317713362148     
  i_freq           18   929.669825346536     
  i_freq           19   1822.15757171970     
  i_freq           20   3571.42886411586     
  Time range....................................:  1000.0
  Frequency range...............................:  7000.0
  Number of time points ........................:   20
  Number of frequency points....................:   20
  
    Allocating matrices for self-consistent GW.
  | The Green function in frequency takes :       0.000 Gbs
  | The Green function in time takes :       0.000 Gbs
  | The polarizability takes :       0.000 Gbs
  
   --- Evaluating the  Green's function ---
 Number of particle calculated from the Green's function= 
   2.00000000000000     
          | Total time for calculating the Green's function:                   0.000 s
          | Chemical Potential :    -0.0765 Ha   -2.0812 eV
          | Parameter for the poles expansion of G and Sigma
          | Number of poles used :          100
          | Smallest pole :    0.0100
          | Largest  pole :  100.0000
          | Fit accuracy for G(w)                     0.320E-07
          | Average Deviation on  G(t)      0.149E-02
          | Total time for Fourier transform G(t):                             0.008 s
  
   Self-Consistent loop initialization ... 
  
  ----------------------------------------------
              Iteration            1
  ----------------------------------------------
  
   --- Evaluating the Polarizability 
          | Total time for calculating the Polarizability:                     0.002 s
          | Fit accuracy for polarizability           0.410E-09
          | Total time for Fourier transforming the Polarizability:            0.008 s
  
   --- Evaluating the Screened Coulomb interaction
          | Total time for calculating the Screened Coulomb interaction:       0.000 s
          | Fit accuracy for W                        0.287E-08
          | Total time for Fourier transforming the Scr. Coul. Int.:           0.007 s
  
   --- Evaluating the Self Energy 
          | Total time for calculating the Self Energy:                        0.001 s
          | Fourier transform of the Self Energy from time to frequency 
          | Fit accuracy for Self-Energy              0.413E-09
          | Total time for Fourier transforming the Self Energy:               0.003 s
          | Evaluating the Exact-exchange and Hartree operators
  Integrating kinetic matrix: batch-based integration.
  
   --- GW Total Energy Calculation
          |
          | DFT Total Energy                  :      -78.720714 eV          -2.892933 Ha
          | Galitskii-Migdal Total Energy     :      -80.220879 eV          -2.948063 Ha
          | GW Kinetic Energy                 :       77.715059 eV           2.855976 Ha
          | Hartree energy from DFT density   :       55.150672 eV           2.026750 Ha
          | Hartree energy from GW density    :       55.150672 eV           2.026750 Ha
          | DFT xc energy                     :      -36.423807 eV          -1.338550 Ha
          | Nuclear Energy                    :        0.000000 eV           0.000000 Ha
          | GW correlation Energy             :       -2.392295 eV          -0.087915 Ha
          | RPA correlation Energy            :       -1.311434 eV          -0.048194 Ha
          | Initial Exchange Energy           :      -27.575336 eV          -1.013375 Ha
          | Exchange Energy                   :      -27.575336 eV          -1.013375 Ha
          | Sigle Particle Energy             :      -31.526384 eV          -1.158573 Ha
  
          | Fit accuracy for G(w)                     0.221E-07
          | Total time for Fourier transforming the G(t)                       0.003 s
          | Average Deviation on  G(it)     0.621E-01
          | Number of particle from  G   :    2.0023647
  
  ----------------------------------------------
              Iteration            2
  ----------------------------------------------
  
   --- Evaluating the Polarizability 
          | Total time for calculating the Polarizability:                     0.001 s
          | Fit accuracy for polarizability           0.457E-09
          | Total time for Fourier transforming the Polarizability:            0.010 s
  
   --- Evaluating the Screened Coulomb interaction
          | Total time for calculating the Screened Coulomb interaction:       0.000 s
          | Fit accuracy for W                        0.963E-08
          | Total time for Fourier transforming the Scr. Coul. Int.:           0.007 s
  
   --- Evaluating the Self Energy 
          | Total time for calculating the Self Energy:                        0.001 s
          | Fourier transform of the Self Energy from time to frequency 
          | Fit accuracy for Self-Energy              0.188E-09
          | Total time for Fourier transforming the Self Energy:               0.003 s
          | Evaluating the Exact-exchange and Hartree operators
  Integrating kinetic matrix: batch-based integration.
  
   --- GW Total Energy Calculation
          |
          | DFT Total Energy                  :      -78.720714 eV          -2.892933 Ha
          | Galitskii-Migdal Total Energy     :      -78.273149 eV          -2.876485 Ha
          | GW Kinetic Energy                 :       77.430296 eV           2.845511 Ha
          | Hartree energy from DFT density   :       54.866751 eV           2.016316 Ha
          | Hartree energy from GW density    :       54.585736 eV           2.005989 Ha
          | DFT xc energy                     :      -36.151712 eV          -1.328551 Ha
          | Nuclear Energy                    :        0.000000 eV           0.000000 Ha
          | GW correlation Energy             :       -1.731416 eV          -0.063628 Ha
          | RPA correlation Energy            :       -0.924486 eV          -0.033974 Ha
          | Initial Exchange Energy           :      -27.232426 eV          -1.000773 Ha
          | Exchange Energy                   :      -26.894953 eV          -0.988371 Ha
          | Sigle Particle Energy             :      -30.650726 eV          -1.126393 Ha
  
          | Fit accuracy for G(w)                     0.383E-07
          | Total time for Fourier transforming the G(t)                       0.012 s
          | Average Deviation on  G(it)     0.255E-02
          | Number of particle from  G   :    1.9998599
  
  ----------------------------------------------
              Iteration            3
  ----------------------------------------------
  
   --- Evaluating the Polarizability 
          | Total time for calculating the Polarizability:                     0.001 s
          | Fit accuracy for polarizability           0.551E-10
          | Total time for Fourier transforming the Polarizability:            0.007 s
  
   --- Evaluating the Screened Coulomb interaction
          | Total time for calculating the Screened Coulomb interaction:       0.001 s
          | Fit accuracy for W                        0.429E-08
          | Total time for Fourier transforming the Scr. Coul. Int.:           0.007 s
  
   --- Evaluating the Self Energy 
          | Total time for calculating the Self Energy:                        0.001 s
          | Fourier transform of the Self Energy from time to frequency 
          | Fit accuracy for Self-Energy              0.311E-09
          | Total time for Fourier transforming the Self Energy:               0.012 s
          | Evaluating the Exact-exchange and Hartree operators
  Integrating kinetic matrix: batch-based integration.
  
   --- GW Total Energy Calculation
          |
          | DFT Total Energy                  :      -78.720714 eV          -2.892933 Ha
          | Galitskii-Migdal Total Energy     :      -78.770704 eV          -2.894770 Ha
          | GW Kinetic Energy                 :       77.717098 eV           2.856051 Ha
          | Hartree energy from DFT density   :       54.992259 eV           2.020928 Ha
          | Hartree energy from GW density    :       54.834564 eV           2.015133 Ha
          | DFT xc energy                     :      -36.283500 eV          -1.333394 Ha
          | Nuclear Energy                    :        0.000000 eV           0.000000 Ha
          | GW correlation Energy             :       -1.741748 eV          -0.064008 Ha
          | RPA correlation Energy            :       -0.930532 eV          -0.034196 Ha
          | Initial Exchange Energy           :      -27.377076 eV          -1.006089 Ha
          | Exchange Energy                   :      -27.180521 eV          -0.998866 Ha
          | Sigle Particle Energy             :      -30.981981 eV          -1.138567 Ha
  
          | Fit accuracy for G(w)                     0.383E-07
          | Total time for Fourier transforming the G(t)                       0.003 s
          | Average Deviation on  G(it)     0.359E-03
          | Number of particle from  G   :    2.0000533
  
  ----------------------------------------------
              Iteration            4
  ----------------------------------------------
  
   --- Evaluating the Polarizability 
          | Total time for calculating the Polarizability:                     0.001 s
          | Fit accuracy for polarizability           0.625E-09
          | Total time for Fourier transforming the Polarizability:            0.007 s
  
   --- Evaluating the Screened Coulomb interaction
          | Total time for calculating the Screened Coulomb interaction:       0.000 s
          | Fit accuracy for W                        0.968E-08
          | Total time for Fourier transforming the Scr. Coul. Int.:           0.007 s
  
   --- Evaluating the Self Energy 
          | Total time for calculating the Self Energy:                        0.012 s
          | Fourier transform of the Self Energy from time to frequency 
          | Fit accuracy for Self-Energy              0.318E-09
          | Total time for Fourier transforming the Self Energy:               0.003 s
          | Evaluating the Exact-exchange and Hartree operators
  Integrating kinetic matrix: batch-based integration.
  
   --- GW Total Energy Calculation
          |
          | DFT Total Energy                  :      -78.720714 eV          -2.892933 Ha
          | Galitskii-Migdal Total Energy     :      -78.755674 eV          -2.894218 Ha
          | GW Kinetic Energy                 :       77.733685 eV           2.856660 Ha
          | Hartree energy from DFT density   :       54.995888 eV           2.021062 Ha
          | Hartree energy from GW density    :       54.841805 eV           2.015399 Ha
          | DFT xc energy                     :      -36.285730 eV          -1.333476 Ha
          | Nuclear Energy                    :        0.000000 eV           0.000000 Ha
          | GW correlation Energy             :       -1.737758 eV          -0.063861 Ha
          | RPA correlation Energy            :       -0.928233 eV          -0.034112 Ha
          | Initial Exchange Energy           :      -27.376497 eV          -1.006068 Ha
          | Exchange Energy                   :      -27.179383 eV          -0.998824 Ha
          | Sigle Particle Energy             :      -30.974292 eV          -1.138284 Ha
  
          | Fit accuracy for G(w)                     0.384E-07
          | Total time for Fourier transforming the G(t)                       0.003 s
          | Average Deviation on  G(it)     0.297E-04
          | Number of particle from  G   :    2.0000549
  
  ----------------------------------------------
              Iteration            5
  ----------------------------------------------
  
   --- Evaluating the Polarizability 
          | Total time for calculating the Polarizability:                     0.001 s
          | Fit accuracy for polarizability           0.416E-09
          | Total time for Fourier transforming the Polarizability:            0.007 s
  
   --- Evaluating the Screened Coulomb interaction
          | Total time for calculating the Screened Coulomb interaction:       0.000 s
          | Fit accuracy for W                        0.362E-08
          | Total time for Fourier transforming the Scr. Coul. Int.:           0.009 s
  
   --- Evaluating the Self Energy 
          | Total time for calculating the Self Energy:                        0.008 s
          | Fourier transform of the Self Energy from time to frequency 
          | Fit accuracy for Self-Energy              0.361E-09
          | Total time for Fourier transforming the Self Energy:               0.003 s
          | Evaluating the Exact-exchange and Hartree operators
  Integrating kinetic matrix: batch-based integration.
  
   --- GW Total Energy Calculation
          |
          | DFT Total Energy                  :      -78.720714 eV          -2.892933 Ha
          | Galitskii-Migdal Total Energy     :      -78.759212 eV          -2.894348 Ha
          | GW Kinetic Energy                 :       77.734838 eV           2.856703 Ha
          | Hartree energy from DFT density   :       54.996847 eV           2.021097 Ha
          | Hartree energy from GW density    :       54.843715 eV           2.015469 Ha
          | DFT xc energy                     :      -36.286584 eV          -1.333507 Ha
          | Nuclear Energy                    :        0.000000 eV           0.000000 Ha
          | GW correlation Energy             :       -1.737910 eV          -0.063867 Ha
          | RPA correlation Energy            :       -0.928321 eV          -0.034115 Ha
          | Initial Exchange Energy           :      -27.377477 eV          -1.006104 Ha
          | Exchange Energy                   :      -27.181325 eV          -0.998895 Ha
          | Sigle Particle Energy             :      -30.976581 eV          -1.138368 Ha
  
          | Fit accuracy for G(w)                     0.384E-07
          | Total time for Fourier transforming the G(t)                       0.003 s
          | Average Deviation on  G(it)     0.195E-05
          | Number of particle from  G   :    2.0000582
  
   --- Calculating the Spectrum
  ----------------------------------------  
      End of the SCF-GW loop      
  ----------------------------------------  
    
    Number of loops =            5
  Evaluating new KS density using the density matrix
  Evaluating density matrix
  Time summed over all CPUs for getting density from density matrix: real work        0.003 s, elapsed        0.003 s
  ------------------------------------------------------------
   Computing monopole / dipole moments for complete molecule:
  | Total electronic charge [e]         :          0.200005821727977E+01
  | Total ionic charge [e]              :          0.200000000000000E+01
  | Total charge [e]                    :         -0.582172797716218E-04
  | Total dipole moment [eAng]          :         -0.440628541986676E-16        -0.734380903311127E-17         0.132188562596003E-15
  | Absolute dipole moment              :          0.139532371629114E-15 eAng              /                   0.670098093222731E-15 Debye  .
  --- scGW deallocations: completed --- 

------------------------------------------------------------------------------
  Final output of selected total energy values:

  The following output summarizes some interesting total energy values
  at the end of a run (AFTER all relaxation, molecular dynamics, etc.).

  | Total energy of the DFT / Hartree-Fock s.c.f. calculation      :            -78.720713640 eV
  | Final zero-broadening corrected energy (caution - metals only) :            -78.720713640 eV
  | For reference only, the value of 1 Hartree used in FHI-aims is :             27.211384500 eV

  Before relying on these values, please be sure to understand exactly which
  total energy value is referred to by a given number. Different objects may
  all carry the same name 'total energy'. Definitions:

  Total energy of the DFT / Hartree-Fock s.c.f. calculation:
  | Note that this energy does not include ANY quantities calculated after the
  | s.c.f. cycle, in particular not ANY RPA, MP2, etc. many-body perturbation terms.

  Final zero-broadening corrected energy:
  | For metallic systems only, a broadening of the occupation numbers at the Fermi
  | level can be extrapolated back to zero broadening by an electron-gas inspired
  | formula. For all systems that are not real metals, this value can be
  | meaningless and should be avoided.

------------------------------------------------------------------------------
  Methods described in the following list of references were used in this FHI-aims run.
  If you publish the results, please make sure to cite these reference if they apply.
  FHI-aims is an academic code, and for our developers (often, Ph.D. students
  and postdocs), scientific credit in the community is essential.
  Thank you for helping us!

  For any use of FHI-aims, please cite:

    Volker Blum, Ralf Gehrke, Felix Hanke, Paula Havu, Ville Havu,
    Xinguo Ren, Karsten Reuter, and Matthias Scheffler
    'Ab initio molecular simulations with numeric atom-centered orbitals'
    Computer Physics Communications 180, 2175-2196 (2009)
    http://dx.doi.org/10.1016/j.cpc.2009.06.022


  For Hartree-Fock, hybrid functionals, or many-body perturbation theory used in your run, please cite:

    Xinguo Ren, Patrick Rinke, Volker Blum, Juergen Wieferink, Alex Tkatchenko,
    Andrea Sanfilippo, Karsten Reuter, and Matthias Scheffler,
    'Resolution-of-identity approach to Hartree-Fock, hybrid density functionals,
    RPA, MP2, and GW with numeric atom-centered orbital basis functions'
    New Journal of Physics 14, 053020 (2012).
    http://dx.doi.org/10.1088/1367-2630/14/5/053020


  For the real-space grid partitioning and parallelization used in this calculation, please cite:

    Ville Havu, Volker Blum, Paula Havu, and Matthias Scheffler,
    'Efficient O(N) integration for all-electron electronic structure calculation'
    'using numerically tabulated basis functions'
    Journal of Computational Physics 228, 8367-8379 (2009).
    http://dx.doi.org/10.1016/j.jcp.2009.08.008

  Of course, there are many other important community references, e.g., those cited in the
  above references. Our list is limited to references that describe implementations in the
  FHI-aims code. The reason is purely practical (length of this list) - please credit others as well.

------------------------------------------------------------
          Leaving FHI-aims.
          Date     :  20141010, Time     :  184031.788

          Computational steps:
          | Number of self-consistency cycles          :            1

          Detailed time accounting                     :  max(cpu_time)    wall_clock(cpu1)
          | Total time                                 :        0.970 s           0.973 s
          | Preparation time                           :        0.080 s           0.104 s
          | Grid partitioning                          :        0.002 s           0.002 s
          | Preloading free-atom quantities on grid    :        0.002 s           0.002 s
          | Free-atom superposition energy             :        0.001 s           0.001 s
          | Total time for integrations                :        0.017 s           0.016 s
          | Product basis setup: Total time            :        0.000 s           0.000 s
          | Product basis: | 3-center integrations     :        0.007 s           0.011 s
          | Product basis: | 2-center integrations     :        0.071 s           0.071 s
          | Product basis: | 2-center linear algebra   :        0.001 s           0.001 s
          | Product basis: | 3-center x 2-center       :        0.000 s           0.001 s
          | Transforming ovlp_3fn to ovlp_3KS          :        0.000 s           0.000 s
          | Total time for solution of K.-S. equations :        0.000 s           0.001 s
          | Total time for density update              :        0.002 s           0.003 s
          | Total time for mixing                      :        0.000 s           0.000 s
          | Total time for Hartree multipole update    :        0.001 s           0.001 s
          | Total time for Hartree multipole sum       :        0.003 s           0.003 s
          | Total time for total energy evaluation     :        0.000 s           0.001 s

          Have a nice day.
------------------------------------------------------------
