VASPCALC                                
           1
    27.156736    0.000000    0.000000
     0.000000   27.156736    0.000000
     0.000000    0.000000   27.156736
   H    C    O    N    Al
  59  71  15  15  15
Direct configuration=     1
   0.55550408  0.26322836  0.57172495
   0.43363303  0.51499355  0.60509455
   0.53120518  0.33019039  0.62630332
   0.40839991  0.35908893  0.59210545
   0.68393964  0.78537953  0.69755256
   0.30581912  0.66155201  0.67972243
   0.41390276  0.78912073  0.58341116
   0.21898538  0.76827908  0.57473260
   0.59262121  0.31808695  0.85362625
   0.38062227  0.70299327  0.81343842
   0.54485261  0.71256256  0.63204956
   0.74287826  0.36790884  0.76155257
   0.26663876  0.60852242  0.75226754
   0.40299937  0.67706525  0.63918251
   0.69698066  0.20629886  0.83878171
   0.39443833  0.54626971  0.68852419
   0.76800644  0.24334085  0.87842119
   0.36859950  0.46757731  0.67310643
   0.71300423  0.21904302  0.61565989
   0.27292705  0.72936428  0.63015902
   0.39506581  0.27403599  0.63227636
   0.79239559  0.68544000  0.61093765
   0.62980425  0.35287243  0.63053536
   0.35946912  0.78994191  0.79833531
   0.56240219  0.77881831  0.69120646
   0.58689708  0.36635488  0.69825733
   0.43716919  0.58559328  0.74988210
   0.31216407  0.78959173  0.56109554
   0.57445520  0.24309084  0.82219094
   0.43904898  0.65043360  0.75869989
   0.49197510  0.37363708  0.73048484
   0.42367160  0.62634969  0.70008314
   0.78112173  0.26370302  0.74482232
   0.21790867  0.54088289  0.74717486
   0.33488294  0.61666590  0.63197476
   0.65651768  0.75915504  0.75949526
   0.38866371  0.63147402  0.83304417
   0.48904213  0.62542284  0.55545819
   0.62795722  0.77394617  0.81614602
   0.32548639  0.61474890  0.82599556
   0.53880990  0.66166544  0.57685143
   0.59181994  0.76975060  0.76240617
   0.37248138  0.57012314  0.81762809
   0.49063730  0.64432645  0.61808324
   0.59030062  0.57788837  0.70147645
   0.69760257  0.47350806  0.64869511
   0.76374853  0.52594733  0.78534079
   0.63349873  0.45529196  0.72899270
   0.32141447  0.47129387  0.85081297
   0.54161066  0.56625521  0.62500966
   0.64912653  0.46246439  0.57221246
   0.71376717  0.60616136  0.68704659
   0.73839092  0.54991490  0.62694836
   0.75438106  0.57996893  0.72949463
   0.19696543  0.42642987  0.87014258
   0.62865055  0.56068051  0.77714795
   0.68777847  0.58565921  0.78851831
   0.65006405  0.61222279  0.74211246
   0.71685851  0.38962975  0.84807181
   0.55095458  0.29967642  0.55565995
   0.41823134  0.48422104  0.58443666
   0.53711677  0.33783603  0.58743370
   0.40364379  0.39613426  0.57717401
   0.42328975  0.43651354  0.60191959
   0.53074968  0.38457578  0.56784040
   0.49883121  0.41975087  0.64213794
   0.66970414  0.22658588  0.68245834
   0.32018089  0.68912530  0.70499939
   0.44676754  0.78660977  0.60656673
   0.22467275  0.73494744  0.55292439
   0.62430543  0.30189759  0.69143260
   0.36055356  0.71192217  0.77993292
   0.51942652  0.74330592  0.63395405
   0.63897032  0.25624007  0.71188647
   0.34633350  0.67430979  0.74702692
   0.47735921  0.74458843  0.60376000
   0.63400286  0.24415538  0.76763725
   0.36462733  0.62075073  0.75569767
   0.46929345  0.70264900  0.56576395
   0.68375480  0.26286566  0.78741205
   0.33502880  0.57805085  0.73123050
   0.41647744  0.68230152  0.56082118
   0.74080914  0.32791066  0.76492709
   0.28507912  0.57546580  0.73819369
   0.39066029  0.66586399  0.60261416
   0.71269161  0.23911795  0.82171965
   0.36039340  0.53688240  0.70793533
   0.75761080  0.25635123  0.84179336
   0.34583789  0.48844469  0.69886136
   0.68658465  0.24115834  0.63629228
   0.31222743  0.73906577  0.69395310
   0.45663363  0.23206887  0.64024305
   0.21404810  0.68917572  0.57374465
   0.64035410  0.31704080  0.64479887
   0.34992012  0.76174814  0.77131110
   0.53002054  0.78094411  0.66767651
   0.58723950  0.26833946  0.79342818
   0.41930878  0.62056988  0.73990238
   0.78765351  0.29889759  0.76438498
   0.25374436  0.53240764  0.73080099
   0.35119200  0.63279754  0.59898406
   0.79119664  0.28750449  0.81938946
   0.26866329  0.48114371  0.74822730
   0.33548981  0.61817455  0.55251199
   0.67217904  0.28715539  0.61832356
   0.32676932  0.77494121  0.72780848
   0.49816731  0.22728369  0.67166913
   0.22405043  0.64701337  0.54623103
   0.69366318  0.34748626  0.55553007
   0.28051710  0.24129716  0.67776346
   0.65878379  0.68298763  0.61541462
   0.26121101  0.57294488  0.57676458
   0.62773919  0.78177083  0.77650714
   0.36280790  0.60892528  0.81158549
   0.49902713  0.65582192  0.58020562
   0.60467017  0.55373973  0.67287695
   0.66436952  0.49532583  0.64309907
   0.64982986  0.52949381  0.67953682
   0.68441391  0.54149854  0.72209752
   0.69778997  0.49560240  0.75247782
   0.73851317  0.49488986  0.78416497
   0.66453338  0.45587707  0.75455207
   0.66987425  0.41810745  0.78955746
   0.57667971  0.54740977  0.63005263
   0.63730443  0.48897421  0.59990180
   0.72930443  0.57063794  0.69907892
   0.74797124  0.45573458  0.81726217
   0.71087986  0.41946107  0.82154763
   0.59453237  0.51657325  0.59345251
   0.66096485  0.57728750  0.75945663
   0.51513106  0.42579836  0.59544498
   0.44986916  0.42878911  0.64704841
   0.52452505  0.40945876  0.67779696
   0.69505066  0.30068648  0.57388753
   0.31817809  0.23292723  0.71589798
   0.50073647  0.26371998  0.70824128
   0.22103499  0.60144246  0.57246614
   0.23360090  0.30717880  0.84723479
   0.62107092  0.68960255  0.59442347
   0.29946929  0.58017737  0.54577887
   0.66390377  0.37995082  0.56423354
   0.26490587  0.28661925  0.67586374
   0.69660240  0.67647243  0.63645911
   0.26109576  0.53695160  0.60548490
   0.56511939  0.51062483  0.55053973
   0.30908901  0.45936054  0.72029173
   0.29245520  0.75503969  0.64922869
   0.59343910  0.31888270  0.81608272
   0.75744098  0.54893428  0.65927744
   0.79266369  0.45308807  0.84359300
   0.69549328  0.31065306  0.77158427
   0.48174155  0.34375900  0.75213027
   0.26681036  0.20716861  0.64811736
   0.59641033  0.33695814  0.72012639
   0.42858458  0.27438617  0.64918303
   0.34166509  0.28532013  0.82262576
   0.29565516  0.39309302  0.81292474
   0.54375488  0.61938751  0.84340221
   0.39184967  0.41464090  0.77532226
   0.53256541  0.59872562  0.80954427
   0.54010022  0.30327553  0.75211143
   0.43996149  0.29797739  0.71383917
   0.32900926  0.39606282  0.75016272
   0.22210395  0.51500422  0.66412067
   0.26139694  0.45255780  0.81348920
   0.24415115  0.42917690  0.69320673
   0.25293237  0.33419162  0.72245544
   0.28941467  0.32708544  0.82189453
   0.35395446  0.29211771  0.75538015
   0.63695425  0.35531971  0.77944171
   0.44071600  0.37174544  0.80368173
   0.42645544  0.47523358  0.76507771
   0.43540645  0.38349539  0.90000004
   0.35708550  0.41554675  0.84413391
   0.38722610  0.31456551  0.86371976
