### Starting TaskPrologue of job 548022 on f0233 at Wed Apr 26 10:50:08 CEST 2023
#   SLURM_JOB_NODELIST=f[0233,0240,0245]
#   SLURM_JOB_NUM_NODES=3
#   SLURM_NTASKS=216
#   SLURM_NPROCS=216
#   SLURM_TASKS_PER_NODE=72(x3)
#   SLURM_JOB_CPUS_PER_NODE=72(x3)
#   SLURM_EXPORT_ENV=NONE
Running on cores 0-71 with governor powersave
### Finished TaskPrologue
 DBCSR| CPU Multiplication driver                                           XSMM (U)
 DBCSR| Multrec recursion limit                                              512 (U)
 DBCSR| Multiplication stack size                                           1000 (D)
 DBCSR| Maximum elements for images                                    UNLIMITED (U)
 DBCSR| Multiplicative factor virtual images                                   1 (U)
 DBCSR| Use multiplication densification                                       T (D)
 DBCSR| Multiplication size stacks                                             3 (U)
 DBCSR| Use memory pool for CPU allocation                                     F (U)
 DBCSR| Number of 3D layers                                               SINGLE (U)
 DBCSR| Use MPI memory allocation                                              F (U)
 DBCSR| Use RMA algorithm                                                      F (U)
 DBCSR| Use Communication thread                                               T (U)
 DBCSR| Communication thread load                                             87 (D)
 DBCSR| MPI: My process id                                                     0
 DBCSR| MPI: Number of processes                                             216
 DBCSR| OMP: Current number of threads                                         1
 DBCSR| OMP: Max number of threads                                             1
 DBCSR| Split modifier for TAS multiplication algorithm                  1.0E+00 (U)


  **** **** ******  **  PROGRAM STARTED AT               2023-04-26 10:50:13.688
 ***** ** ***  *** **   PROGRAM STARTED ON                      f0233.nhr.fau.de
 **    ****   ******    PROGRAM STARTED BY                              b165da13
 ***** **    ** ** **   PROGRAM PROCESS ID                               3008059
  **** **  *******  **  PROGRAM STARTED IN /home/atuin/b165da/b165da13/74_rerun_
                                           70_with_new_shifts/10_shift=-01.0pm

 CP2K| version string:                 CP2K version 2023.1 (Development Version)
 CP2K| source code revision number:                                  git:add1d78
 CP2K| cp2kflags: omp libint fftw3 libxc parallel mpi_f08 scalapack cosma xsmm p
 CP2K|            lumed2 spglib mkl libvdwxc
 CP2K| is freely available from                            https://www.cp2k.org/
 CP2K| Program compiled at                           Wed Feb 1 22:16:35 CET 2023
 CP2K| Program compiled on                                     fritz2.nhr.fau.de
 CP2K| Program compiled for                                                local
 CP2K| Data directory path    /home/atuin/b165da/b165da10/01_CP2K_compilations/0
 CP2K| Input file name                                           Energy_calc.inp
 
 GLOBAL| Force Environment number                                              1
 GLOBAL| Basis set file name                                        BASIS_MOLOPT
 GLOBAL| Potential file name                                      GTH_POTENTIALS
 GLOBAL| MM Potential file name                                     MM_POTENTIAL
 GLOBAL| Coordinate file name                                      supercell.xyz
 GLOBAL| Method name                                                        CP2K
 GLOBAL| Project name                                      Energy_defect_shifted
 GLOBAL| Run type                                                         ENERGY
 GLOBAL| FFT library                                                       FFTW3
 GLOBAL| Diagonalization library                                       ScaLAPACK
 GLOBAL| DGEMM library                                                      BLAS
 GLOBAL| Orthonormality check for eigenvectors                          DISABLED
 GLOBAL| Matrix multiplication library                                     COSMA
 GLOBAL| All-to-all communication in single precision                          F
 GLOBAL| FFTs using library dependent lengths                                  T
 GLOBAL| Grid backend                                                       AUTO
 GLOBAL| Global print level                                               MEDIUM
 GLOBAL| MPI I/O enabled                                                       T
 GLOBAL| Total number of message passing processes                           216
 GLOBAL| Number of threads for this process                                    1
 GLOBAL| This output is from process                                           0
 GLOBAL| Stack size for threads created by OpenMP (OMP_STACKSIZE)        default
 GLOBAL| CPU model name            Intel(R) Xeon(R) Platinum 8360Y CPU @ 2.40GHz
 GLOBAL| CPUID                                                              1003

 MEMORY| system memory details [Kb]
 MEMORY|                        rank 0           min           max       average
 MEMORY| MemTotal            263795712     263795712     263795744     263795722
 MEMORY| MemFree             232432860     232432860     239050184     236090778
 MEMORY| Buffers                  3528          3528          3740          3656
 MEMORY| Cached                2946756       2883004       2946756       2915902
 MEMORY| Slab                  8504364       2500820       8504364       5069877
 MEMORY| SReclaimable           144760        127992        144760        134314
 MEMORY| MemLikelyFree       235527904     235527904     242064920     239144652


 *** Fundamental physical constants (SI units) ***

 *** Literature: B. J. Mohr and B. N. Taylor,
 ***             CODATA recommended values of the fundamental physical
 ***             constants: 2006, Web Version 5.1
 ***             http://physics.nist.gov/constants

 Speed of light in vacuum [m/s]                             2.99792458000000E+08
 Magnetic constant or permeability of vacuum [N/A**2]       1.25663706143592E-06
 Electric constant or permittivity of vacuum [F/m]          8.85418781762039E-12
 Planck constant (h) [J*s]                                  6.62606896000000E-34
 Planck constant (h-bar) [J*s]                              1.05457162825177E-34
 Elementary charge [C]                                      1.60217648700000E-19
 Electron mass [kg]                                         9.10938215000000E-31
 Electron g factor [ ]                                     -2.00231930436220E+00
 Proton mass [kg]                                           1.67262163700000E-27
 Fine-structure constant                                    7.29735253760000E-03
 Rydberg constant [1/m]                                     1.09737315685270E+07
 Avogadro constant [1/mol]                                  6.02214179000000E+23
 Boltzmann constant [J/K]                                   1.38065040000000E-23
 Atomic mass unit [kg]                                      1.66053878200000E-27
 Bohr radius [m]                                            5.29177208590000E-11

 *** Conversion factors ***

 [u] -> [a.u.]                                              1.82288848426455E+03
 [Angstrom] -> [Bohr] = [a.u.]                              1.88972613288564E+00
 [a.u.] = [Bohr] -> [Angstrom]                              5.29177208590000E-01
 [a.u.] -> [s]                                              2.41888432650478E-17
 [a.u.] -> [fs]                                             2.41888432650478E-02
 [a.u.] -> [J]                                              4.35974393937059E-18
 [a.u.] -> [N]                                              8.23872205491840E-08
 [a.u.] -> [K]                                              3.15774647902944E+05
 [a.u.] -> [kJ/mol]                                         2.62549961709828E+03
 [a.u.] -> [kcal/mol]                                       6.27509468713739E+02
 [a.u.] -> [Pa]                                             2.94210107994716E+13
 [a.u.] -> [bar]                                            2.94210107994716E+08
 [a.u.] -> [atm]                                            2.90362800883016E+08
 [a.u.] -> [eV]                                             2.72113838565563E+01
 [a.u.] -> [Hz]                                             6.57968392072181E+15
 [a.u.] -> [1/cm] (wave numbers)                            2.19474631370540E+05
 [a.u./Bohr**2] -> [1/cm]                                   5.14048714338585E+03
 

 CELL_TOP| Volume [angstrom^3]:                                     54950.209632
 CELL_TOP| Vector a [angstrom    39.828     0.000     0.000   |a| =    39.828079
 CELL_TOP| Vector b [angstrom   -19.914    34.492     0.000   |b| =    39.828079
 CELL_TOP| Vector c [angstrom     0.000     0.000    40.000   |c| =    40.000000
 CELL_TOP| Angle (b,c), alpha [degree]:                                90.000000
 CELL_TOP| Angle (a,c), beta  [degree]:                                90.000000
 CELL_TOP| Angle (a,b), gamma [degree]:                               120.000000
 CELL_TOP| Numerically orthorhombic:                                          NO
 CELL_TOP| Periodicity                                                        XY
 
 GENERATE|  Preliminary Number of Bonds generated:                             0
 GENERATE|  Achieved consistency in connectivity generation.

 CELL| Volume [angstrom^3]:                                         54950.209632
 CELL| Vector a [angstrom]:      39.828     0.000     0.000   |a| =    39.828079
 CELL| Vector b [angstrom]:     -19.914    34.492     0.000   |b| =    39.828079
 CELL| Vector c [angstrom]:       0.000     0.000    40.000   |c| =    40.000000
 CELL| Angle (b,c), alpha [degree]:                                    90.000000
 CELL| Angle (a,c), beta  [degree]:                                    90.000000
 CELL| Angle (a,b), gamma [degree]:                                   120.000000
 CELL| Numerically orthorhombic:                                              NO
 CELL| Periodicity                                                            XY

 CELL_REF| Volume [angstrom^3]:                                     54950.209632
 CELL_REF| Vector a [angstrom    39.828     0.000     0.000   |a| =    39.828079
 CELL_REF| Vector b [angstrom   -19.914    34.492     0.000   |b| =    39.828079
 CELL_REF| Vector c [angstrom     0.000     0.000    40.000   |c| =    40.000000
 CELL_REF| Angle (b,c), alpha [degree]:                                90.000000
 CELL_REF| Angle (a,c), beta  [degree]:                                90.000000
 CELL_REF| Angle (a,b), gamma [degree]:                               120.000000
 CELL_REF| Numerically orthorhombic:                                          NO
 CELL_REF| Periodicity                                                        XY

 *******************************************************************************
 *******************************************************************************
 **                                                                           **
 **     #####                         ##              ##                      **
 **    ##   ##            ##          ##              ##                      **
 **   ##     ##                       ##            ######                    **
 **   ##     ##  ##   ##  ##   #####  ##  ##   ####   ##    #####    #####    **
 **   ##     ##  ##   ##  ##  ##      ## ##   ##      ##   ##   ##  ##   ##   **
 **   ##  ## ##  ##   ##  ##  ##      ####     ###    ##   ######   ######    **
 **    ##  ###   ##   ##  ##  ##      ## ##      ##   ##   ##       ##        **
 **     #######   #####   ##   #####  ##  ##  ####    ##    #####   ##        **
 **           ##                                                    ##        **
 **                                                                           **
 **                                                ... make the atoms dance   **
 **                                                                           **
 **            Copyright (C) by CP2K developers group (2000-2023)             **
 **                      J. Chem. Phys. 152, 194103 (2020)                    **
 **                                                                           **
 *******************************************************************************

 DFT| Spin restricted Kohn-Sham (RKS) calculation                            RKS
 DFT| Multiplicity                                                             1
 DFT| Number of spin states                                                    1
 DFT| Charge                                                                   0
 DFT| Self-interaction correction (SIC)                                       NO
 DFT| Cutoffs: density                                              1.000000E-10
 DFT|          gradient                                             1.000000E-10
 DFT|          tau                                                  1.000000E-10
 DFT|          cutoff_smoothing_range                               0.000000E+00
 DFT| XC density smoothing                                                  NONE
 DFT| XC derivatives                                                          PW

 FUNCTIONAL| PBE:
 FUNCTIONAL| J.P.Perdew, K.Burke, M.Ernzerhof, Phys. Rev. Letter, vol. 77, n 18,
 FUNCTIONAL|  pp. 3865-3868, (1996){spin unpolarized}                           

 vdW POTENTIAL|                                                   Pair Potential
 vdW POTENTIAL|          DFT-D3 (Version 3.1)
 vdW POTENTIAL|          Potential Form: S. Grimme et al, JCP 132: 154104 (2010)
 vdW POTENTIAL|          Zero Damping
 vdW POTENTIAL|          Cutoff Radius [Bohr]:                             20.00
 vdW POTENTIAL|          s6 Scaling Factor:                               1.0000
 vdW POTENTIAL|          sr6 Scaling Factor:                              1.2170
 vdW POTENTIAL|          s8 Scaling Factor:                               0.7220
 vdW POTENTIAL|          Cutoff for CN calculation:                   0.1000E-05

 QS| Method:                                                                GAPW
 QS| Density plane wave grid type                        NON-SPHERICAL FULLSPACE
 QS| Number of grid levels:                                                    4
 QS| Density cutoff [a.u.]:                                                200.0
 QS| Multi grid cutoff [a.u.]: 1) grid level                               200.0
 QS|                           2) grid level                                66.7
 QS|                           3) grid level                                22.2
 QS|                           4) grid level                                 7.4
 QS| Grid level progression factor:                                          3.0
 QS| Relative density cutoff [a.u.]:                                        50.0
 QS| Interaction thresholds: eps_pgf_orb:                                1.0E-05
 QS|                         eps_filter_matrix:                          0.0E+00
 QS|                         eps_core_charge:                            1.0E-12
 QS|                         eps_rho_gspace:                             1.0E-10
 QS|                         eps_rho_rspace:                             1.0E-10
 QS|                         eps_gvg_rspace:                             1.0E-05
 QS|                         eps_ppl:                                    1.0E-02
 QS|                         eps_ppnl:                                   1.0E-07
 QS| GAPW|      One center basis from orbital basis primitives
 QS| GAPW|                   eps_fit:                                    1.0E-04
 QS| GAPW|                   eps_iso:                                    1.0E-12
 QS| GAPW|                   eps_svd:                                    1.0E-08
 QS| GAPW|                   eps_cpc:                                    1.0E-10
 QS| GAPW|   atom-r-grid: quadrature:                                     GC_LOG
 QS| GAPW|      atom-s-grid:  max l :                                          6
 QS| GAPW|      max_l_rho0 :                                                   2
 QS| GAPW|      At least one kind is NOT PAW, i.e. it has only soft AO 
 QS| GAPW|      The NOT PAW atoms are treated fully GPW


 ATOMIC KIND INFORMATION

  1. Atomic kind: Se                                    Number of atoms:     287

     Orbital Basis Set                                    TZVP-MOLOPT-PBE-GTH-q6

       Number of orbital shell sets:                                           1
       Number of orbital shells:                                               7
       Number of primitive Cartesian functions:                                4
       Number of Cartesian basis functions:                                   18
       Number of spherical basis functions:                                   17
       Norm type:                                                              2

       Normalised Cartesian orbitals:

                        Set   Shell   Orbital            Exponent    Coefficient

                          1       1    2s                1.243062       0.540839
                                                         1.079560      -0.447599
                                                         0.277731      -0.098965
                                                         0.091127      -0.080902

                          1       2    3s                1.243062       0.602966
                                                         1.079560      -0.320384
                                                         0.277731      -0.191424
                                                         0.091127       0.167488

                          1       3    4s                1.243062      -0.314935
                                                         1.079560      -0.699877
                                                         0.277731       0.142793
                                                         0.091127       0.020344

                          1       4    3px               1.243062       0.251032
                                                         1.079560      -0.255526
                                                         0.277731      -0.071668
                                                         0.091127      -0.056825
                          1       4    3py               1.243062       0.251032
                                                         1.079560      -0.255526
                                                         0.277731      -0.071668
                                                         0.091127      -0.056825
                          1       4    3pz               1.243062       0.251032
                                                         1.079560      -0.255526
                                                         0.277731      -0.071668
                                                         0.091127      -0.056825

                          1       5    4px               1.243062       3.544875
                                                         1.079560      -3.177395
                                                         0.277731      -0.307442
                                                         0.091127       0.076275
                          1       5    4py               1.243062       3.544875
                                                         1.079560      -3.177395
                                                         0.277731      -0.307442
                                                         0.091127       0.076275
                          1       5    4pz               1.243062       3.544875
                                                         1.079560      -3.177395
                                                         0.277731      -0.307442
                                                         0.091127       0.076275

                          1       6    5px               1.243062       0.552375
                                                         1.079560      -0.864726
                                                         0.277731       0.378517
                                                         0.091127      -0.017839
                          1       6    5py               1.243062       0.552375
                                                         1.079560      -0.864726
                                                         0.277731       0.378517
                                                         0.091127      -0.017839
                          1       6    5pz               1.243062       0.552375
                                                         1.079560      -0.864726
                                                         0.277731       0.378517
                                                         0.091127      -0.017839

                          1       7    4dx2              1.243062       0.909796
                                                         1.079560      -1.009206
                                                         0.277731      -0.142210
                                                         0.091127      -0.003197
                          1       7    4dxy              1.243062       1.575812
                                                         1.079560      -1.747996
                                                         0.277731      -0.246314
                                                         0.091127      -0.005537
                          1       7    4dxz              1.243062       1.575812
                                                         1.079560      -1.747996
                                                         0.277731      -0.246314
                                                         0.091127      -0.005537
                          1       7    4dy2              1.243062       0.909796
                                                         1.079560      -1.009206
                                                         0.277731      -0.142210
                                                         0.091127      -0.003197
                          1       7    4dyz              1.243062       1.575812
                                                         1.079560      -1.747996
                                                         0.277731      -0.246314
                                                         0.091127      -0.005537
                          1       7    4dz2              1.243062       0.909796
                                                         1.079560      -1.009206
                                                         0.277731      -0.142210
                                                         0.091127      -0.003197

       Atomic covalent radius [Angstrom]:                                  1.160

       Atomic van der Waals radius [Angstrom]:                             1.900

     GTH Potential information for                                    GTH-PBE-q6

       Description:                       Goedecker-Teter-Hutter pseudopotential
                                           Goedecker et al., PRB 54, 1703 (1996)
                                          Hartwigsen et al., PRB 58, 3641 (1998)
                                                      Krack, TCA 114, 145 (2005)

       Gaussian exponent of the core charge distribution:               1.922338
       Electronic configuration (s p d ...):                               2   4

       Parameters of the local part of the GTH pseudopotential:

                          rloc        C1          C2          C3          C4
                        0.510000

       Parameters of the non-local part of the GTH pseudopotential:

                   l      r(l)      h(i,j,l)

                   0    0.432460    6.518110   -0.222716   -1.196129
                                   -0.222716   -1.657978    3.088392
                                   -1.196129    3.088392   -2.451335
                   1    0.470492    2.281262    0.365335
                                    0.365335   -0.432271
                   2    0.625600    0.439799

  2. Atomic kind: W                                     Number of atoms:     144

     Orbital Basis Set                                   TZVP-MOLOPT-PBE-GTH-q14

       Number of orbital shell sets:                                           1
       Number of orbital shells:                                              11
       Number of primitive Cartesian functions:                                6
       Number of Cartesian basis functions:                                   41
       Number of spherical basis functions:                                   35
       Norm type:                                                              2

       Normalised Cartesian orbitals:

                        Set   Shell   Orbital            Exponent    Coefficient

                          1       1    2s                3.202637       0.390454
                                                         2.970404       0.395569
                                                         1.054481      -0.613576
                                                         0.447462      -0.093621
                                                         0.172572      -0.034869
                                                         0.057796      -0.016637

                          1       2    3s                3.202637      -0.614093
                                                         2.970404       0.668497
                                                         1.054481      -0.142499
                                                         0.447462      -0.095130
                                                         0.172572       0.077989
                                                         0.057796       0.068808

                          1       3    4s                3.202637       1.092716
                                                         2.970404      -0.653617
                                                         1.054481       0.053652
                                                         0.447462       0.074208
                                                         0.172572      -0.385158
                                                         0.057796       0.131678

                          1       4    5s                3.202637       1.654250
                                                         2.970404      -1.282739
                                                         1.054481      -0.160143
                                                         0.447462      -0.015921
                                                         0.172572       0.144478
                                                         0.057796       0.032600

                          1       5    3px               3.202637       6.040412
                                                         2.970404      -4.932675
                                                         1.054481      -0.974837
                                                         0.447462      -0.208773
                                                         0.172572      -0.008465
                                                         0.057796      -0.000597
                          1       5    3py               3.202637       6.040412
                                                         2.970404      -4.932675
                                                         1.054481      -0.974837
                                                         0.447462      -0.208773
                                                         0.172572      -0.008465
                                                         0.057796      -0.000597
                          1       5    3pz               3.202637       6.040412
                                                         2.970404      -4.932675
                                                         1.054481      -0.974837
                                                         0.447462      -0.208773
                                                         0.172572      -0.008465
                                                         0.057796      -0.000597

                          1       6    4px               3.202637      -0.456554
                                                         2.970404       0.501115
                                                         1.054481      -0.482085
                                                         0.447462       0.002190
                                                         0.172572       0.123686
                                                         0.057796       0.014461
                          1       6    4py               3.202637      -0.456554
                                                         2.970404       0.501115
                                                         1.054481      -0.482085
                                                         0.447462       0.002190
                                                         0.172572       0.123686
                                                         0.057796       0.014461
                          1       6    4pz               3.202637      -0.456554
                                                         2.970404       0.501115
                                                         1.054481      -0.482085
                                                         0.447462       0.002190
                                                         0.172572       0.123686
                                                         0.057796       0.014461

                          1       7    5px               3.202637       0.341146
                                                         2.970404      -0.173550
                                                         1.054481       0.501233
                                                         0.447462      -0.160487
                                                         0.172572      -0.068662
                                                         0.057796       0.050806
                          1       7    5py               3.202637       0.341146
                                                         2.970404      -0.173550
                                                         1.054481       0.501233
                                                         0.447462      -0.160487
                                                         0.172572      -0.068662
                                                         0.057796       0.050806
                          1       7    5pz               3.202637       0.341146
                                                         2.970404      -0.173550
                                                         1.054481       0.501233
                                                         0.447462      -0.160487
                                                         0.172572      -0.068662
                                                         0.057796       0.050806

                          1       8    4dx2              3.202637      -1.177086
                                                         2.970404       1.305064
                                                         1.054481       0.508845
                                                         0.447462       0.161140
                                                         0.172572       0.030785
                                                         0.057796       0.001694
                          1       8    4dxy              3.202637      -2.038772
                                                         2.970404       2.260437
                                                         1.054481       0.881345
                                                         0.447462       0.279102
                                                         0.172572       0.053320
                                                         0.057796       0.002935
                          1       8    4dxz              3.202637      -2.038772
                                                         2.970404       2.260437
                                                         1.054481       0.881345
                                                         0.447462       0.279102
                                                         0.172572       0.053320
                                                         0.057796       0.002935
                          1       8    4dy2              3.202637      -1.177086
                                                         2.970404       1.305064
                                                         1.054481       0.508845
                                                         0.447462       0.161140
                                                         0.172572       0.030785
                                                         0.057796       0.001694
                          1       8    4dyz              3.202637      -2.038772
                                                         2.970404       2.260437
                                                         1.054481       0.881345
                                                         0.447462       0.279102
                                                         0.172572       0.053320
                                                         0.057796       0.002935
                          1       8    4dz2              3.202637      -1.177086
                                                         2.970404       1.305064
                                                         1.054481       0.508845
                                                         0.447462       0.161140
                                                         0.172572       0.030785
                                                         0.057796       0.001694

                          1       9    5dx2              3.202637       1.244992
                                                         2.970404      -1.375352
                                                         1.054481      -0.529259
                                                         0.447462      -0.172753
                                                         0.172572       0.033139
                                                         0.057796       0.007534
                          1       9    5dxy              3.202637       2.156390
                                                         2.970404      -2.382180
                                                         1.054481      -0.916703
                                                         0.447462      -0.299217
                                                         0.172572       0.057398
                                                         0.057796       0.013049
                          1       9    5dxz              3.202637       2.156390
                                                         2.970404      -2.382180
                                                         1.054481      -0.916703
                                                         0.447462      -0.299217
                                                         0.172572       0.057398
                                                         0.057796       0.013049
                          1       9    5dy2              3.202637       1.244992
                                                         2.970404      -1.375352
                                                         1.054481      -0.529259
                                                         0.447462      -0.172753
                                                         0.172572       0.033139
                                                         0.057796       0.007534
                          1       9    5dyz              3.202637       2.156390
                                                         2.970404      -2.382180
                                                         1.054481      -0.916703
                                                         0.447462      -0.299217
                                                         0.172572       0.057398
                                                         0.057796       0.013049
                          1       9    5dz2              3.202637       1.244992
                                                         2.970404      -1.375352
                                                         1.054481      -0.529259
                                                         0.447462      -0.172753
                                                         0.172572       0.033139
                                                         0.057796       0.007534

                          1      10    6dx2              3.202637      -1.576231
                                                         2.970404       1.580038
                                                         1.054481       0.514593
                                                         0.447462       0.187766
                                                         0.172572      -0.090633
                                                         0.057796       0.013897
                          1      10    6dxy              3.202637      -2.730113
                                                         2.970404       2.736707
                                                         1.054481       0.891302
                                                         0.447462       0.325220
                                                         0.172572      -0.156981
                                                         0.057796       0.024070
                          1      10    6dxz              3.202637      -2.730113
                                                         2.970404       2.736707
                                                         1.054481       0.891302
                                                         0.447462       0.325220
                                                         0.172572      -0.156981
                                                         0.057796       0.024070
                          1      10    6dy2              3.202637      -1.576231
                                                         2.970404       1.580038
                                                         1.054481       0.514593
                                                         0.447462       0.187766
                                                         0.172572      -0.090633
                                                         0.057796       0.013897
                          1      10    6dyz              3.202637      -2.730113
                                                         2.970404       2.736707
                                                         1.054481       0.891302
                                                         0.447462       0.325220
                                                         0.172572      -0.156981
                                                         0.057796       0.024070
                          1      10    6dz2              3.202637      -1.576231
                                                         2.970404       1.580038
                                                         1.054481       0.514593
                                                         0.447462       0.187766
                                                         0.172572      -0.090633
                                                         0.057796       0.013897

                          1      11    5fx3              3.202637       0.175204
                                                         2.970404       0.110416
                                                         1.054481      -0.252513
                                                         0.447462      -0.154881
                                                         0.172572      -0.010571
                                                         0.057796       0.000077
                          1      11    5fx2y             3.202637       0.391768
                                                         2.970404       0.246898
                                                         1.054481      -0.564636
                                                         0.447462      -0.346325
                                                         0.172572      -0.023638
                                                         0.057796       0.000172
                          1      11    5fx2z             3.202637       0.391768
                                                         2.970404       0.246898
                                                         1.054481      -0.564636
                                                         0.447462      -0.346325
                                                         0.172572      -0.023638
                                                         0.057796       0.000172
                          1      11    5fxy2             3.202637       0.391768
                                                         2.970404       0.246898
                                                         1.054481      -0.564636
                                                         0.447462      -0.346325
                                                         0.172572      -0.023638
                                                         0.057796       0.000172
                          1      11    5fxyz             3.202637       0.678562
                                                         2.970404       0.427640
                                                         1.054481      -0.977979
                                                         0.447462      -0.599852
                                                         0.172572      -0.040941
                                                         0.057796       0.000298
                          1      11    5fxz2             3.202637       0.391768
                                                         2.970404       0.246898
                                                         1.054481      -0.564636
                                                         0.447462      -0.346325
                                                         0.172572      -0.023638
                                                         0.057796       0.000172
                          1      11    5fy3              3.202637       0.175204
                                                         2.970404       0.110416
                                                         1.054481      -0.252513
                                                         0.447462      -0.154881
                                                         0.172572      -0.010571
                                                         0.057796       0.000077
                          1      11    5fy2z             3.202637       0.391768
                                                         2.970404       0.246898
                                                         1.054481      -0.564636
                                                         0.447462      -0.346325
                                                         0.172572      -0.023638
                                                         0.057796       0.000172
                          1      11    5fyz2             3.202637       0.391768
                                                         2.970404       0.246898
                                                         1.054481      -0.564636
                                                         0.447462      -0.346325
                                                         0.172572      -0.023638
                                                         0.057796       0.000172
                          1      11    5fz3              3.202637       0.175204
                                                         2.970404       0.110416
                                                         1.054481      -0.252513
                                                         0.447462      -0.154881
                                                         0.172572      -0.010571
                                                         0.057796       0.000077

       Atomic covalent radius [Angstrom]:                                  1.300

       Atomic van der Waals radius [Angstrom]:                             1.670

     GTH Potential information for                                   GTH-PBE-q14

       Description:                       Goedecker-Teter-Hutter pseudopotential
                                           Goedecker et al., PRB 54, 1703 (1996)
                                          Hartwigsen et al., PRB 58, 3641 (1998)
                                                      Krack, TCA 114, 145 (2005)

       Gaussian exponent of the core charge distribution:               1.714678
       Electronic configuration (s p d ...):                           4   6   4

       Parameters of the local part of the GTH pseudopotential:

                          rloc        C1          C2          C3          C4
                        0.540000   13.414811   -2.213456

       Parameters of the non-local part of the GTH pseudopotential:

                   l      r(l)      h(i,j,l)

                   0    0.397028   -4.141211    3.835423    2.233179
                                    3.835423   -1.319244   -5.766044
                                    2.233179   -5.766044    4.576656
                   1    0.353531   -7.456236    8.112326
                                    8.112326   -9.598634
                   2    0.412107   -0.954661   -1.067446
                                   -1.067446    1.210370


 MOLECULE KIND INFORMATION


 All atoms are their own molecule, skipping detailed information


 TOTAL NUMBERS AND MAXIMUM NUMBERS

  Total number of            - Atomic kinds:                                   2
                             - Atoms:                                        431
                             - Shell sets:                                   431
                             - Shells:                                      3593
                             - Primitive Cartesian functions:               2012
                             - Cartesian basis functions:                  11070
                             - Spherical basis functions:                   9919

  Maximum angular momentum of- Orbital basis functions:                        3
                             - Local part of the GTH pseudopotential:          2
                             - Non-local part of the GTH pseudopotential:      4


 MODULE QUICKSTEP: ATOMIC COORDINATES IN ANGSTROM

   Atom Kind Element         X             Y             Z       Z(eff)     Mass
      1    1 Se   34     11.616523      1.916229     18.320724   6.0000  78.9600
      2    1 Se   34     11.616523      1.916229     21.679276   6.0000  78.9600
      3    1 Se   34      9.957020      4.790573     18.320724   6.0000  78.9600
      4    1 Se   34      9.957020      4.790573     21.679276   6.0000  78.9600
      5    1 Se   34      8.297517      7.664917     18.320724   6.0000  78.9600
      6    1 Se   34      8.297517      7.664917     21.679276   6.0000  78.9600
      7    1 Se   34      6.638013     10.539262     18.320724   6.0000  78.9600
      8    1 Se   34      6.638013     10.539262     21.679276   6.0000  78.9600
      9    1 Se   34      4.978510     13.413606     18.320724   6.0000  78.9600
     10    1 Se   34      4.978510     13.413606     21.679276   6.0000  78.9600
     11    1 Se   34      3.319007     16.287950     18.320724   6.0000  78.9600
     12    1 Se   34      3.319007     16.287950     21.679276   6.0000  78.9600
     13    1 Se   34      1.659503     19.162294     18.320724   6.0000  78.9600
     14    1 Se   34      1.659503     19.162294     21.679276   6.0000  78.9600
     15    1 Se   34     -0.000000     22.036638     18.320724   6.0000  78.9600
     16    1 Se   34     -0.000000     22.036638     21.679276   6.0000  78.9600
     17    1 Se   34     -1.659503     24.910982     18.320724   6.0000  78.9600
     18    1 Se   34     -1.659503     24.910982     21.679276   6.0000  78.9600
     19    1 Se   34     -3.319007     27.785326     18.320724   6.0000  78.9600
     20    1 Se   34     -3.319007     27.785326     21.679276   6.0000  78.9600
     21    1 Se   34     -4.978510     30.659670     18.320724   6.0000  78.9600
     22    1 Se   34     -4.978510     30.659670     21.679276   6.0000  78.9600
     23    1 Se   34     -6.638013     33.534014     18.320724   6.0000  78.9600
     24    1 Se   34     -6.638013     33.534014     21.679276   6.0000  78.9600
     25    1 Se   34     14.935530      1.916229     18.320724   6.0000  78.9600
     26    1 Se   34     14.935530      1.916229     21.679276   6.0000  78.9600
     27    1 Se   34     13.276026      4.790573     18.320724   6.0000  78.9600
     28    1 Se   34     13.276026      4.790573     21.679276   6.0000  78.9600
     29    1 Se   34     11.616523      7.664917     18.320724   6.0000  78.9600
     30    1 Se   34     11.616523      7.664917     21.679276   6.0000  78.9600
     31    1 Se   34      9.957020     10.539262     18.320724   6.0000  78.9600
     32    1 Se   34      9.957020     10.539262     21.679276   6.0000  78.9600
     33    1 Se   34      8.297517     13.413606     18.320724   6.0000  78.9600
     34    1 Se   34      8.297517     13.413606     21.679276   6.0000  78.9600
     35    1 Se   34      6.638013     16.287950     18.320724   6.0000  78.9600
     36    1 Se   34      6.638013     16.287950     21.679276   6.0000  78.9600
     37    1 Se   34      4.978510     19.162294     18.320724   6.0000  78.9600
     38    1 Se   34      4.978510     19.162294     21.679276   6.0000  78.9600
     39    1 Se   34      3.319007     22.036638     18.320724   6.0000  78.9600
     40    1 Se   34      3.319007     22.036638     21.679276   6.0000  78.9600
     41    1 Se   34      1.659503     24.910982     18.320724   6.0000  78.9600
     42    1 Se   34      1.659503     24.910982     21.679276   6.0000  78.9600
     43    1 Se   34     -0.000000     27.785326     18.320724   6.0000  78.9600
     44    1 Se   34     -0.000000     27.785326     21.679276   6.0000  78.9600
     45    1 Se   34     -1.659503     30.659670     18.320724   6.0000  78.9600
     46    1 Se   34     -1.659503     30.659670     21.679276   6.0000  78.9600
     47    1 Se   34     -3.319007     33.534014     18.320724   6.0000  78.9600
     48    1 Se   34     -3.319007     33.534014     21.679276   6.0000  78.9600
     49    1 Se   34     18.254536      1.916229     18.320724   6.0000  78.9600
     50    1 Se   34     18.254536      1.916229     21.679276   6.0000  78.9600
     51    1 Se   34     16.595033      4.790573     18.320724   6.0000  78.9600
     52    1 Se   34     16.595033      4.790573     21.679276   6.0000  78.9600
     53    1 Se   34     14.935530      7.664917     18.320724   6.0000  78.9600
     54    1 Se   34     14.935530      7.664917     21.679276   6.0000  78.9600
     55    1 Se   34     13.276026     10.539262     18.320724   6.0000  78.9600
     56    1 Se   34     13.276026     10.539262     21.679276   6.0000  78.9600
     57    1 Se   34     11.616523     13.413606     18.320724   6.0000  78.9600
     58    1 Se   34     11.616523     13.413606     21.679276   6.0000  78.9600
     59    1 Se   34      9.957020     16.287950     18.320724   6.0000  78.9600
     60    1 Se   34      9.957020     16.287950     21.679276   6.0000  78.9600
     61    1 Se   34      8.297517     19.162294     18.320724   6.0000  78.9600
     62    1 Se   34      8.297517     19.162294     21.679276   6.0000  78.9600
     63    1 Se   34      6.638013     22.036638     18.320724   6.0000  78.9600
     64    1 Se   34      6.638013     22.036638     21.679276   6.0000  78.9600
     65    1 Se   34      4.978510     24.910982     18.320724   6.0000  78.9600
     66    1 Se   34      4.978510     24.910982     21.679276   6.0000  78.9600
     67    1 Se   34      3.319007     27.785326     18.320724   6.0000  78.9600
     68    1 Se   34      3.319007     27.785326     21.679276   6.0000  78.9600
     69    1 Se   34      1.659503     30.659670     18.320724   6.0000  78.9600
     70    1 Se   34      1.659503     30.659670     21.679276   6.0000  78.9600
     71    1 Se   34     -0.000000     33.534014     18.320724   6.0000  78.9600
     72    1 Se   34     -0.000000     33.534014     21.679276   6.0000  78.9600
     73    1 Se   34     21.573543      1.916229     18.320724   6.0000  78.9600
     74    1 Se   34     21.573543      1.916229     21.679276   6.0000  78.9600
     75    1 Se   34     19.914040      4.790573     18.320724   6.0000  78.9600
     76    1 Se   34     19.914040      4.790573     21.679276   6.0000  78.9600
     77    1 Se   34     18.254536      7.664917     18.320724   6.0000  78.9600
     78    1 Se   34     18.254536      7.664917     21.679276   6.0000  78.9600
     79    1 Se   34     16.595033     10.539262     18.320724   6.0000  78.9600
     80    1 Se   34     16.595033     10.539262     21.679276   6.0000  78.9600
     81    1 Se   34     14.935530     13.413606     18.320724   6.0000  78.9600
     82    1 Se   34     14.935530     13.413606     21.679276   6.0000  78.9600
     83    1 Se   34     13.276026     16.287950     18.320724   6.0000  78.9600
     84    1 Se   34     13.276026     16.287950     21.679276   6.0000  78.9600
     85    1 Se   34     11.616523     19.162294     18.320724   6.0000  78.9600
     86    1 Se   34     11.616523     19.162294     21.679276   6.0000  78.9600
     87    1 Se   34      9.957020     22.036638     18.320724   6.0000  78.9600
     88    1 Se   34      9.957020     22.036638     21.679276   6.0000  78.9600
     89    1 Se   34      8.297517     24.910982     18.320724   6.0000  78.9600
     90    1 Se   34      8.297517     24.910982     21.679276   6.0000  78.9600
     91    1 Se   34      6.638013     27.785326     18.320724   6.0000  78.9600
     92    1 Se   34      6.638013     27.785326     21.679276   6.0000  78.9600
     93    1 Se   34      4.978510     30.659670     18.320724   6.0000  78.9600
     94    1 Se   34      4.978510     30.659670     21.679276   6.0000  78.9600
     95    1 Se   34      3.319007     33.534014     18.320724   6.0000  78.9600
     96    1 Se   34      3.319007     33.534014     21.679276   6.0000  78.9600
     97    1 Se   34     24.892550      1.916229     18.320724   6.0000  78.9600
     98    1 Se   34     24.892550      1.916229     21.679276   6.0000  78.9600
     99    1 Se   34     23.233046      4.790573     18.320724   6.0000  78.9600
    100    1 Se   34     23.233046      4.790573     21.679276   6.0000  78.9600
    101    1 Se   34     21.573543      7.664917     18.320724   6.0000  78.9600
    102    1 Se   34     21.573543      7.664917     21.679276   6.0000  78.9600
    103    1 Se   34     19.914040     10.539262     18.320724   6.0000  78.9600
    104    1 Se   34     19.914040     10.539262     21.679276   6.0000  78.9600
    105    1 Se   34     18.254536     13.413606     18.320724   6.0000  78.9600
    106    1 Se   34     18.254536     13.413606     21.679276   6.0000  78.9600
    107    1 Se   34     16.595033     16.287950     18.320724   6.0000  78.9600
    108    1 Se   34     16.595033     16.287950     21.679276   6.0000  78.9600
    109    1 Se   34     14.935530     19.162294     18.320724   6.0000  78.9600
    110    1 Se   34     14.935530     19.162294     21.679276   6.0000  78.9600
    111    1 Se   34     13.276026     22.036638     18.320724   6.0000  78.9600
    112    1 Se   34     13.276026     22.036638     21.679276   6.0000  78.9600
    113    1 Se   34     11.616523     24.910982     18.320724   6.0000  78.9600
    114    1 Se   34     11.616523     24.910982     21.679276   6.0000  78.9600
    115    1 Se   34      9.957020     27.785326     18.320724   6.0000  78.9600
    116    1 Se   34      9.957020     27.785326     21.679276   6.0000  78.9600
    117    1 Se   34      8.297517     30.659670     18.320724   6.0000  78.9600
    118    1 Se   34      8.297517     30.659670     21.679276   6.0000  78.9600
    119    1 Se   34      6.638013     33.534014     18.320724   6.0000  78.9600
    120    1 Se   34      6.638013     33.534014     21.679276   6.0000  78.9600
    121    1 Se   34     28.211556      1.916229     18.320724   6.0000  78.9600
    122    1 Se   34     28.211556      1.916229     21.679276   6.0000  78.9600
    123    1 Se   34     26.552053      4.790573     18.320724   6.0000  78.9600
    124    1 Se   34     26.552053      4.790573     21.679276   6.0000  78.9600
    125    1 Se   34     24.892550      7.664917     18.320724   6.0000  78.9600
    126    1 Se   34     24.892550      7.664917     21.679276   6.0000  78.9600
    127    1 Se   34     23.233046     10.539262     18.320724   6.0000  78.9600
    128    1 Se   34     23.233046     10.539262     21.679276   6.0000  78.9600
    129    1 Se   34     21.573543     13.413606     18.320724   6.0000  78.9600
    130    1 Se   34     21.573543     13.413606     21.679276   6.0000  78.9600
    131    1 Se   34     19.914040     16.287950     18.320724   6.0000  78.9600
    132    1 Se   34     18.254536     19.162294     18.320724   6.0000  78.9600
    133    1 Se   34     18.254536     19.162294     21.679276   6.0000  78.9600
    134    1 Se   34     16.595033     22.036638     18.320724   6.0000  78.9600
    135    1 Se   34     16.595033     22.036638     21.679276   6.0000  78.9600
    136    1 Se   34     14.935530     24.910982     18.320724   6.0000  78.9600
    137    1 Se   34     14.935530     24.910982     21.679276   6.0000  78.9600
    138    1 Se   34     13.276026     27.785326     18.320724   6.0000  78.9600
    139    1 Se   34     13.276026     27.785326     21.679276   6.0000  78.9600
    140    1 Se   34     11.616523     30.659670     18.320724   6.0000  78.9600
    141    1 Se   34     11.616523     30.659670     21.679276   6.0000  78.9600
    142    1 Se   34      9.957020     33.534014     18.320724   6.0000  78.9600
    143    1 Se   34      9.957020     33.534014     21.679276   6.0000  78.9600
    144    1 Se   34     31.530563      1.916229     18.320724   6.0000  78.9600
    145    1 Se   34     31.530563      1.916229     21.679276   6.0000  78.9600
    146    1 Se   34     29.871060      4.790573     18.320724   6.0000  78.9600
    147    1 Se   34     29.871060      4.790573     21.679276   6.0000  78.9600
    148    1 Se   34     28.211556      7.664917     18.320724   6.0000  78.9600
    149    1 Se   34     28.211556      7.664917     21.679276   6.0000  78.9600
    150    1 Se   34     26.552053     10.539262     18.320724   6.0000  78.9600
    151    1 Se   34     26.552053     10.539262     21.679276   6.0000  78.9600
    152    1 Se   34     24.892550     13.413606     18.320724   6.0000  78.9600
    153    1 Se   34     24.892550     13.413606     21.679276   6.0000  78.9600
    154    1 Se   34     23.233046     16.287950     18.320724   6.0000  78.9600
    155    1 Se   34     23.233046     16.287950     21.679276   6.0000  78.9600
    156    1 Se   34     21.573543     19.162294     18.320724   6.0000  78.9600
    157    1 Se   34     21.573543     19.162294     21.679276   6.0000  78.9600
    158    1 Se   34     19.914040     22.036638     18.320724   6.0000  78.9600
    159    1 Se   34     19.914040     22.036638     21.679276   6.0000  78.9600
    160    1 Se   34     18.254536     24.910982     18.320724   6.0000  78.9600
    161    1 Se   34     18.254536     24.910982     21.679276   6.0000  78.9600
    162    1 Se   34     16.595033     27.785326     18.320724   6.0000  78.9600
    163    1 Se   34     16.595033     27.785326     21.679276   6.0000  78.9600
    164    1 Se   34     14.935530     30.659670     18.320724   6.0000  78.9600
    165    1 Se   34     14.935530     30.659670     21.679276   6.0000  78.9600
    166    1 Se   34     13.276026     33.534014     18.320724   6.0000  78.9600
    167    1 Se   34     13.276026     33.534014     21.679276   6.0000  78.9600
    168    1 Se   34     34.849570      1.916229     18.320724   6.0000  78.9600
    169    1 Se   34     34.849570      1.916229     21.679276   6.0000  78.9600
    170    1 Se   34     33.190066      4.790573     18.320724   6.0000  78.9600
    171    1 Se   34     33.190066      4.790573     21.679276   6.0000  78.9600
    172    1 Se   34     31.530563      7.664917     18.320724   6.0000  78.9600
    173    1 Se   34     31.530563      7.664917     21.679276   6.0000  78.9600
    174    1 Se   34     29.871060     10.539262     18.320724   6.0000  78.9600
    175    1 Se   34     29.871060     10.539262     21.679276   6.0000  78.9600
    176    1 Se   34     28.211556     13.413606     18.320724   6.0000  78.9600
    177    1 Se   34     28.211556     13.413606     21.679276   6.0000  78.9600
    178    1 Se   34     26.552053     16.287950     18.320724   6.0000  78.9600
    179    1 Se   34     26.552053     16.287950     21.679276   6.0000  78.9600
    180    1 Se   34     24.892550     19.162294     18.320724   6.0000  78.9600
    181    1 Se   34     24.892550     19.162294     21.679276   6.0000  78.9600
    182    1 Se   34     23.233046     22.036638     18.320724   6.0000  78.9600
    183    1 Se   34     23.233046     22.036638     21.679276   6.0000  78.9600
    184    1 Se   34     21.573543     24.910982     18.320724   6.0000  78.9600
    185    1 Se   34     21.573543     24.910982     21.679276   6.0000  78.9600
    186    1 Se   34     19.914040     27.785326     18.320724   6.0000  78.9600
    187    1 Se   34     19.914040     27.785326     21.679276   6.0000  78.9600
    188    1 Se   34     18.254536     30.659670     18.320724   6.0000  78.9600
    189    1 Se   34     18.254536     30.659670     21.679276   6.0000  78.9600
    190    1 Se   34     16.595033     33.534014     18.320724   6.0000  78.9600
    191    1 Se   34     16.595033     33.534014     21.679276   6.0000  78.9600
    192    1 Se   34     38.168576      1.916229     18.320724   6.0000  78.9600
    193    1 Se   34     38.168576      1.916229     21.679276   6.0000  78.9600
    194    1 Se   34     36.509073      4.790573     18.320724   6.0000  78.9600
    195    1 Se   34     36.509073      4.790573     21.679276   6.0000  78.9600
    196    1 Se   34     34.849570      7.664917     18.320724   6.0000  78.9600
    197    1 Se   34     34.849570      7.664917     21.679276   6.0000  78.9600
    198    1 Se   34     33.190066     10.539262     18.320724   6.0000  78.9600
    199    1 Se   34     33.190066     10.539262     21.679276   6.0000  78.9600
    200    1 Se   34     31.530563     13.413606     18.320724   6.0000  78.9600
    201    1 Se   34     31.530563     13.413606     21.679276   6.0000  78.9600
    202    1 Se   34     29.871060     16.287950     18.320724   6.0000  78.9600
    203    1 Se   34     29.871060     16.287950     21.679276   6.0000  78.9600
    204    1 Se   34     28.211556     19.162294     18.320724   6.0000  78.9600
    205    1 Se   34     28.211556     19.162294     21.679276   6.0000  78.9600
    206    1 Se   34     26.552053     22.036638     18.320724   6.0000  78.9600
    207    1 Se   34     26.552053     22.036638     21.679276   6.0000  78.9600
    208    1 Se   34     24.892550     24.910982     18.320724   6.0000  78.9600
    209    1 Se   34     24.892550     24.910982     21.679276   6.0000  78.9600
    210    1 Se   34     23.233046     27.785326     18.320724   6.0000  78.9600
    211    1 Se   34     23.233046     27.785326     21.679276   6.0000  78.9600
    212    1 Se   34     21.573543     30.659670     18.320724   6.0000  78.9600
    213    1 Se   34     21.573543     30.659670     21.679276   6.0000  78.9600
    214    1 Se   34     19.914040     33.534014     18.320724   6.0000  78.9600
    215    1 Se   34     19.914040     33.534014     21.679276   6.0000  78.9600
    216    1 Se   34     41.487583      1.916229     18.320724   6.0000  78.9600
    217    1 Se   34     41.487583      1.916229     21.679276   6.0000  78.9600
    218    1 Se   34     39.828079      4.790573     18.320724   6.0000  78.9600
    219    1 Se   34     39.828079      4.790573     21.679276   6.0000  78.9600
    220    1 Se   34     38.168576      7.664917     18.320724   6.0000  78.9600
    221    1 Se   34     38.168576      7.664917     21.679276   6.0000  78.9600
    222    1 Se   34     36.509073     10.539262     18.320724   6.0000  78.9600
    223    1 Se   34     36.509073     10.539262     21.679276   6.0000  78.9600
    224    1 Se   34     34.849570     13.413606     18.320724   6.0000  78.9600
    225    1 Se   34     34.849570     13.413606     21.679276   6.0000  78.9600
    226    1 Se   34     33.190066     16.287950     18.320724   6.0000  78.9600
    227    1 Se   34     33.190066     16.287950     21.679276   6.0000  78.9600
    228    1 Se   34     31.530563     19.162294     18.320724   6.0000  78.9600
    229    1 Se   34     31.530563     19.162294     21.679276   6.0000  78.9600
    230    1 Se   34     29.871060     22.036638     18.320724   6.0000  78.9600
    231    1 Se   34     29.871060     22.036638     21.679276   6.0000  78.9600
    232    1 Se   34     28.211556     24.910982     18.320724   6.0000  78.9600
    233    1 Se   34     28.211556     24.910982     21.679276   6.0000  78.9600
    234    1 Se   34     26.552053     27.785326     18.320724   6.0000  78.9600
    235    1 Se   34     26.552053     27.785326     21.679276   6.0000  78.9600
    236    1 Se   34     24.892550     30.659670     18.320724   6.0000  78.9600
    237    1 Se   34     24.892550     30.659670     21.679276   6.0000  78.9600
    238    1 Se   34     23.233046     33.534014     18.320724   6.0000  78.9600
    239    1 Se   34     23.233046     33.534014     21.679276   6.0000  78.9600
    240    1 Se   34     44.806589      1.916229     18.320724   6.0000  78.9600
    241    1 Se   34     44.806589      1.916229     21.679276   6.0000  78.9600
    242    1 Se   34     43.147086      4.790573     18.320724   6.0000  78.9600
    243    1 Se   34     43.147086      4.790573     21.679276   6.0000  78.9600
    244    1 Se   34     41.487583      7.664917     18.320724   6.0000  78.9600
    245    1 Se   34     41.487583      7.664917     21.679276   6.0000  78.9600
    246    1 Se   34     39.828079     10.539262     18.320724   6.0000  78.9600
    247    1 Se   34     39.828079     10.539262     21.679276   6.0000  78.9600
    248    1 Se   34     38.168576     13.413606     18.320724   6.0000  78.9600
    249    1 Se   34     38.168576     13.413606     21.679276   6.0000  78.9600
    250    1 Se   34     36.509073     16.287950     18.320724   6.0000  78.9600
    251    1 Se   34     36.509073     16.287950     21.679276   6.0000  78.9600
    252    1 Se   34     34.849570     19.162294     18.320724   6.0000  78.9600
    253    1 Se   34     34.849570     19.162294     21.679276   6.0000  78.9600
    254    1 Se   34     33.190066     22.036638     18.320724   6.0000  78.9600
    255    1 Se   34     33.190066     22.036638     21.679276   6.0000  78.9600
    256    1 Se   34     31.530563     24.910982     18.320724   6.0000  78.9600
    257    1 Se   34     31.530563     24.910982     21.679276   6.0000  78.9600
    258    1 Se   34     29.871060     27.785326     18.320724   6.0000  78.9600
    259    1 Se   34     29.871060     27.785326     21.679276   6.0000  78.9600
    260    1 Se   34     28.211556     30.659670     18.320724   6.0000  78.9600
    261    1 Se   34     28.211556     30.659670     21.679276   6.0000  78.9600
    262    1 Se   34     26.552053     33.534014     18.320724   6.0000  78.9600
    263    1 Se   34     26.552053     33.534014     21.679276   6.0000  78.9600
    264    1 Se   34     48.125596      1.916229     18.320724   6.0000  78.9600
    265    1 Se   34     48.125596      1.916229     21.679276   6.0000  78.9600
    266    1 Se   34     46.466093      4.790573     18.320724   6.0000  78.9600
    267    1 Se   34     46.466093      4.790573     21.679276   6.0000  78.9600
    268    1 Se   34     44.806589      7.664917     18.320724   6.0000  78.9600
    269    1 Se   34     44.806589      7.664917     21.679276   6.0000  78.9600
    270    1 Se   34     43.147086     10.539262     18.320724   6.0000  78.9600
    271    1 Se   34     43.147086     10.539262     21.679276   6.0000  78.9600
    272    1 Se   34     41.487583     13.413606     18.320724   6.0000  78.9600
    273    1 Se   34     41.487583     13.413606     21.679276   6.0000  78.9600
    274    1 Se   34     39.828079     16.287950     18.320724   6.0000  78.9600
    275    1 Se   34     39.828079     16.287950     21.679276   6.0000  78.9600
    276    1 Se   34     38.168576     19.162294     18.320724   6.0000  78.9600
    277    1 Se   34     38.168576     19.162294     21.679276   6.0000  78.9600
    278    1 Se   34     36.509073     22.036638     18.320724   6.0000  78.9600
    279    1 Se   34     36.509073     22.036638     21.679276   6.0000  78.9600
    280    1 Se   34     34.849570     24.910982     18.320724   6.0000  78.9600
    281    1 Se   34     34.849570     24.910982     21.679276   6.0000  78.9600
    282    1 Se   34     33.190066     27.785326     18.320724   6.0000  78.9600
    283    1 Se   34     33.190066     27.785326     21.679276   6.0000  78.9600
    284    1 Se   34     31.530563     30.659670     18.320724   6.0000  78.9600
    285    1 Se   34     31.530563     30.659670     21.679276   6.0000  78.9600
    286    1 Se   34     29.871060     33.534014     18.320724   6.0000  78.9600
    287    1 Se   34     29.871060     33.534014     21.679276   6.0000  78.9600
    288    2 W    74      9.957020      0.958115     19.994615  14.0000 183.8400
    289    2 W    74      8.297517      3.832459     19.994615  14.0000 183.8400
    290    2 W    74      6.638013      6.706803     19.994615  14.0000 183.8400
    291    2 W    74      4.978510      9.581147     19.994615  14.0000 183.8400
    292    2 W    74      3.319007     12.455491     19.994615  14.0000 183.8400
    293    2 W    74      1.659503     15.329835     19.994615  14.0000 183.8400
    294    2 W    74      0.000000     18.204179     19.994615  14.0000 183.8400
    295    2 W    74     -1.659503     21.078523     19.994615  14.0000 183.8400
    296    2 W    74     -3.319007     23.952867     19.994615  14.0000 183.8400
    297    2 W    74     -4.978510     26.827211     19.994615  14.0000 183.8400
    298    2 W    74     -6.638013     29.701555     19.994615  14.0000 183.8400
    299    2 W    74     -8.297517     32.575899     19.994615  14.0000 183.8400
    300    2 W    74     13.276026      0.958115     19.994615  14.0000 183.8400
    301    2 W    74     11.616523      3.832459     19.994615  14.0000 183.8400
    302    2 W    74      9.957020      6.706803     19.994615  14.0000 183.8400
    303    2 W    74      8.297517      9.581147     19.994615  14.0000 183.8400
    304    2 W    74      6.638013     12.455491     19.994615  14.0000 183.8400
    305    2 W    74      4.978510     15.329835     19.994615  14.0000 183.8400
    306    2 W    74      3.319007     18.204179     19.994615  14.0000 183.8400
    307    2 W    74      1.659503     21.078523     19.994615  14.0000 183.8400
    308    2 W    74      0.000000     23.952867     19.994615  14.0000 183.8400
    309    2 W    74     -1.659503     26.827211     19.994615  14.0000 183.8400
    310    2 W    74     -3.319007     29.701555     19.994615  14.0000 183.8400
    311    2 W    74     -4.978510     32.575899     19.994615  14.0000 183.8400
    312    2 W    74     16.595033      0.958115     19.994615  14.0000 183.8400
    313    2 W    74     14.935530      3.832459     19.994615  14.0000 183.8400
    314    2 W    74     13.276026      6.706803     19.994615  14.0000 183.8400
    315    2 W    74     11.616523      9.581147     19.994615  14.0000 183.8400
    316    2 W    74      9.957020     12.455491     19.994615  14.0000 183.8400
    317    2 W    74      8.297517     15.329835     19.994615  14.0000 183.8400
    318    2 W    74      6.638013     18.204179     19.994615  14.0000 183.8400
    319    2 W    74      4.978510     21.078523     19.994615  14.0000 183.8400
    320    2 W    74      3.319007     23.952867     19.994615  14.0000 183.8400
    321    2 W    74      1.659503     26.827211     19.994615  14.0000 183.8400
    322    2 W    74      0.000000     29.701555     19.994615  14.0000 183.8400
    323    2 W    74     -1.659503     32.575899     19.994615  14.0000 183.8400
    324    2 W    74     19.914040      0.958115     19.994615  14.0000 183.8400
    325    2 W    74     18.254536      3.832459     19.994615  14.0000 183.8400
    326    2 W    74     16.595033      6.706803     19.994615  14.0000 183.8400
    327    2 W    74     14.935530      9.581147     19.994615  14.0000 183.8400
    328    2 W    74     13.276026     12.455491     19.994615  14.0000 183.8400
    329    2 W    74     11.616523     15.329835     19.994615  14.0000 183.8400
    330    2 W    74      9.957020     18.204179     19.994615  14.0000 183.8400
    331    2 W    74      8.297517     21.078523     19.994615  14.0000 183.8400
    332    2 W    74      6.638013     23.952867     19.994615  14.0000 183.8400
    333    2 W    74      4.978510     26.827211     19.994615  14.0000 183.8400
    334    2 W    74      3.319007     29.701555     19.994615  14.0000 183.8400
    335    2 W    74      1.659503     32.575899     19.994615  14.0000 183.8400
    336    2 W    74     23.233046      0.958115     19.994615  14.0000 183.8400
    337    2 W    74     21.573543      3.832459     19.994615  14.0000 183.8400
    338    2 W    74     19.914040      6.706803     19.994615  14.0000 183.8400
    339    2 W    74     18.254536      9.581147     19.994615  14.0000 183.8400
    340    2 W    74     16.595033     12.455491     19.994615  14.0000 183.8400
    341    2 W    74     14.935530     15.329835     19.994615  14.0000 183.8400
    342    2 W    74     13.276026     18.204179     19.994615  14.0000 183.8400
    343    2 W    74     11.616523     21.078523     19.994615  14.0000 183.8400
    344    2 W    74      9.957020     23.952867     19.994615  14.0000 183.8400
    345    2 W    74      8.297517     26.827211     19.994615  14.0000 183.8400
    346    2 W    74      6.638013     29.701555     19.994615  14.0000 183.8400
    347    2 W    74      4.978510     32.575899     19.994615  14.0000 183.8400
    348    2 W    74     26.552053      0.958115     19.994615  14.0000 183.8400
    349    2 W    74     24.892550      3.832459     19.994615  14.0000 183.8400
    350    2 W    74     23.233046      6.706803     19.994615  14.0000 183.8400
    351    2 W    74     21.573543      9.581147     19.994615  14.0000 183.8400
    352    2 W    74     19.914040     12.455491     19.994615  14.0000 183.8400
    353    2 W    74     18.254536     15.329835     19.994615  14.0000 183.8400
    354    2 W    74     16.595033     18.204179     19.994615  14.0000 183.8400
    355    2 W    74     14.935530     21.078523     19.994615  14.0000 183.8400
    356    2 W    74     13.276026     23.952867     19.994615  14.0000 183.8400
    357    2 W    74     11.616523     26.827211     19.994615  14.0000 183.8400
    358    2 W    74      9.957020     29.701555     19.994615  14.0000 183.8400
    359    2 W    74      8.297517     32.575899     19.994615  14.0000 183.8400
    360    2 W    74     29.871060      0.958115     19.994615  14.0000 183.8400
    361    2 W    74     28.211556      3.832459     19.994615  14.0000 183.8400
    362    2 W    74     26.552053      6.706803     19.994615  14.0000 183.8400
    363    2 W    74     24.892550      9.581147     19.994615  14.0000 183.8400
    364    2 W    74     23.233046     12.455491     19.994615  14.0000 183.8400
    365    2 W    74     21.573543     15.329835     19.994615  14.0000 183.8400
    366    2 W    74     19.914040     18.204179     19.994615  14.0000 183.8400
    367    2 W    74     18.254536     21.078523     19.994615  14.0000 183.8400
    368    2 W    74     16.595033     23.952867     19.994615  14.0000 183.8400
    369    2 W    74     14.935530     26.827211     19.994615  14.0000 183.8400
    370    2 W    74     13.276026     29.701555     19.994615  14.0000 183.8400
    371    2 W    74     11.616523     32.575899     19.994615  14.0000 183.8400
    372    2 W    74     33.190066      0.958115     19.994615  14.0000 183.8400
    373    2 W    74     31.530563      3.832459     19.994615  14.0000 183.8400
    374    2 W    74     29.871060      6.706803     19.994615  14.0000 183.8400
    375    2 W    74     28.211556      9.581147     19.994615  14.0000 183.8400
    376    2 W    74     26.552053     12.455491     19.994615  14.0000 183.8400
    377    2 W    74     24.892550     15.329835     19.994615  14.0000 183.8400
    378    2 W    74     23.233046     18.204179     19.994615  14.0000 183.8400
    379    2 W    74     21.573543     21.078523     19.994615  14.0000 183.8400
    380    2 W    74     19.914040     23.952867     19.994615  14.0000 183.8400
    381    2 W    74     18.254536     26.827211     19.994615  14.0000 183.8400
    382    2 W    74     16.595033     29.701555     19.994615  14.0000 183.8400
    383    2 W    74     14.935530     32.575899     19.994615  14.0000 183.8400
    384    2 W    74     36.509073      0.958115     19.994615  14.0000 183.8400
    385    2 W    74     34.849570      3.832459     19.994615  14.0000 183.8400
    386    2 W    74     33.190066      6.706803     19.994615  14.0000 183.8400
    387    2 W    74     31.530563      9.581147     19.994615  14.0000 183.8400
    388    2 W    74     29.871060     12.455491     19.994615  14.0000 183.8400
    389    2 W    74     28.211556     15.329835     19.994615  14.0000 183.8400
    390    2 W    74     26.552053     18.204179     19.994615  14.0000 183.8400
    391    2 W    74     24.892550     21.078523     19.994615  14.0000 183.8400
    392    2 W    74     23.233046     23.952867     19.994615  14.0000 183.8400
    393    2 W    74     21.573543     26.827211     19.994615  14.0000 183.8400
    394    2 W    74     19.914040     29.701555     19.994615  14.0000 183.8400
    395    2 W    74     18.254536     32.575899     19.994615  14.0000 183.8400
    396    2 W    74     39.828079      0.958115     19.994615  14.0000 183.8400
    397    2 W    74     38.168576      3.832459     19.994615  14.0000 183.8400
[...]
    421       W      2      14.000         14.977                        -0.977
    422       W      2      14.000         14.977                        -0.977
    423       W      2      14.000         14.977                        -0.977
    424       W      2      14.000         14.977                        -0.977
    425       W      2      14.000         14.977                        -0.977
    426       W      2      14.000         14.977                        -0.977
    427       W      2      14.000         14.977                        -0.977
    428       W      2      14.000         14.977                        -0.977
    429       W      2      14.000         14.977                        -0.977
    430       W      2      14.000         14.977                        -0.977
    431       W      2      14.000         14.977                        -0.977

  Total Charge                                                            0.005
 !-----------------------------------------------------------------------------!

 ENERGY| Total FORCE_EVAL ( QS ) energy [a.u.]:           -12545.989805779126982

 -------------------------------------------------------------------------------
 -                                                                             -
 -                                DBCSR STATISTICS                             -
 -                                                                             -
 -------------------------------------------------------------------------------
 COUNTER                                    TOTAL       BLAS       SMM       ACC
 flops    17 x    17 x    43           6046083456       0.0%    100.0%      0.0%
 flops    35 x    17 x    43           9711963660       0.0%    100.0%      0.0%
 flops    17 x    35 x    43           9717336510       0.0%    100.0%      0.0%
 flops    35 x    35 x    43          13698871200       0.0%    100.0%      0.0%
 flops    17 x    17 x    32          53992931328       0.0%    100.0%      0.0%
 flops    35 x    17 x    32          86730094080       0.0%    100.0%      0.0%
 flops    17 x    35 x    32          86778074880       0.0%    100.0%      0.0%
 flops    35 x    35 x    32         122334105600       0.0%    100.0%      0.0%
 flops    17 x    17 x    64         206972903424       0.0%    100.0%      0.0%
 flops    35 x    17 x    64         332465360640       0.0%    100.0%      0.0%
 flops    17 x    35 x    64         332649287040       0.0%    100.0%      0.0%
 flops    35 x    35 x    64         468947404800       0.0%    100.0%      0.0%
 flops inhomo. stacks                           0       0.0%      0.0%      0.0%
 flops total                         1.730044E+12       0.0%    100.0%      0.0%
 flops max/rank                      9.245388E+09       0.0%    100.0%      0.0%
 matmuls inhomo. stacks                         0       0.0%      0.0%      0.0%
 matmuls total                           27107892       0.0%    100.0%      0.0%
 number of processed stacks                653184       0.0%    100.0%      0.0%
 average stack size                                     0.0      41.5       0.0
 marketing flops                     7.723148E+12
 -------------------------------------------------------------------------------
 # multiplications                             21
 max memory usage/rank               2.019922E+09
 # max total images/rank                        3
 # max 3D layers                                1
 # MPI messages exchanged                  303912
 MPI messages size (bytes):
  total size                        88.605401E+09
  min size                         136.960000E+03
  max size                         423.936000E+03
  average size                     291.549531E+03
 MPI breakdown and total messages size (bytes):
             size <=      128                   0                        0
       128 < size <=     8192                   0                        0
      8192 < size <=    32768                   0                        0
     32768 < size <=   131072                   0                        0
    131072 < size <=  4194304              303912              88605395424
   4194304 < size <= 16777216                   0                        0
  16777216 < size                               0                        0
 -------------------------------------------------------------------------------

 *** WARNING in dbcsr_mm.F:290 :: Using a non-square number of MPI ranks ***
 *** might lead to poor performance. Used ranks: 216 Suggested: 225 441  ***

 -------------------------------------------------------------------------------
 -                                                                             -
 -                      DBCSR MESSAGE PASSING PERFORMANCE                      -
 -                                                                             -
 -------------------------------------------------------------------------------
 ROUTINE             CALLS      AVE VOLUME [Bytes]
 MP_Bcast               13                     12.
 MP_Allreduce          191                     12.
 MP_Alltoall           600                 559374.
 MP_ISend             3024                 143916.
 MP_IRecv             2982                 140968.
 -------------------------------------------------------------------------------

 -------------------------------------------------------------------------------
 -                                                                             -
 -                                DBM STATISTICS                               -
 -                                                                             -
 -------------------------------------------------------------------------------
    M  x    N  x    K                                          COUNT     PERCENT
 -------------------------------------------------------------------------------

 -------------------------------------------------------------------------------
 -                                                                             -
 -                                GRID STATISTICS                              -
 -                                                                             -
 -------------------------------------------------------------------------------
 LP    KERNEL             BACKEND                              COUNT     PERCENT
 5     collocate general  REF                                2481402      23.77%
 5     integrate general  REF                                2368611      22.69%
 4     collocate general  REF                                1567060      15.01%
 4     integrate general  REF                                1495830      14.33%
 6     collocate general  REF                                1149984      11.02%
 6     integrate general  REF                                1097712      10.51%
 0     collocate general  REF                                 186192       1.78%
 0     integrate general  REF                                  93096       0.89%
 -------------------------------------------------------------------------------

 MEMORY| Estimated peak process memory [MiB]                                1961

 -------------------------------------------------------------------------------
 ----                             MULTIGRID INFO                            ----
 -------------------------------------------------------------------------------
 count for grid        1:        4642966          cutoff [a.u.]          200.00
 count for grid        2:        2245254          cutoff [a.u.]           66.67
 count for grid        3:         937953          cutoff [a.u.]           22.22
 count for grid        4:         126288          cutoff [a.u.]            7.41
 total gridlevel count  :        7952461

 -------------------------------------------------------------------------------
 -                                                                             -
 -                         MESSAGE PASSING PERFORMANCE                         -
 -                                                                             -
 -------------------------------------------------------------------------------

 ROUTINE             CALLS      AVE VOLUME [Bytes]
 MP_Group                4
 MP_Bcast              149                6324058.
 MP_Allreduce          812                   5388.
 MP_Sync                48
 MP_Alltoall           549               15054146.
 MP_SendRecv          9460                 101592.
 MP_ISendRecv         9030                 101592.
 MP_Wait             15443
 MP_comm_split          22
 MP_ISend             5760                 977002.
 MP_IRecv             5760                 976858.
 MP_Recv               177                2539264.
 -------------------------------------------------------------------------------


 -------------------------------------------------------------------------------
 -                                                                             -
 -                           R E F E R E N C E S                               -
 -                                                                             -
 -------------------------------------------------------------------------------
 
 CP2K version 2023.1 (Development Version), the CP2K developers group (2023).
 CP2K is freely available from https://www.cp2k.org/ .

 Kuehne,Thomas D.; Iannuzzi,Marcella; Del Ben,Mauro;
 Rybkin,Vladimir V.; Seewald,Patrick; Stein,Frederick; Laino,Teodoro;
 Khaliullin,Rustam Z.; Schuett,Ole; Schiffmann,Florian; Golze,Dorothea;
 Wilhelm,Jan; Chulkov,Sergey; Bani-Hashemian,Mohammad Hossein;
 Weber,Valery; Borstnik,Urban; Taillefumier,Mathieu;
 Jakobovits,Alice Shoshana; Lazzaro,Alfio; Pabst,Hans; Mueller,Tiziano;
 Schade,Robert; Guidon,Manuel; Andermatt,Samuel; Holmberg,Nico;
 Schenter,Gregory K.; Hehn,Anna; Bussy,Augustin; Belleflamme,Fabian;
 Tabacchi,Gloria; Gloess,Andreas; Lass,Michael; Bethune,Iain;
 Mundy,Christopher J.; Plessl,Christian; Watkins,Matt;
 VandeVondele,Joost; Krack,Matthias; Hutter,Juerg. 
 The Journal of Chemical Physics, 152 (19), (2020). 
 CP2K: An electronic structure and molecular dynamics software package -
 Quickstep: Efficient and accurate electronic structure calculations.
 https://doi.org/10.1063/5.0007045

 Goerigk, Lars; Hansen, Andreas; Bauer, Christoph; Ehrlich, Stephan;
 Najibi, Asim; Grimme, Stefan. , 19 (48), (2017). 
 A look at the density functional theory zoo with the advanced GMTKN55 database
 for general main group thermochemistry, kinetics and noncovalent interactions.
 https://doi.org/10.1039/C7CP04913G

 Schuett, Ole; Messmer, Peter; Hutter, Juerg; VandeVondele, Joost. 
 Electronic Structure Calculations on Graphics Processing Units, John
 Wiley & Sons, Ltd, 173-190 (2016). 
 GPU-Accelerated Sparse Matrix-Matrix Multiplication for
 Linear Scaling Density Functional Theory.
 https://doi.org/10.1002/9781118670712.ch8

 Heinecke, A; Henry, G; Hutchinson, M; Pabst, H. 
 Proceedings of Intl. Supercomputing Conference, 981-991 (2016). 
 LIBXSMM: Accelerating Small Matrix Multiplications
 by Runtime Code Generation.
 https://doi.org/10.1109/SC.2016.83

 Borstnik, U; VandeVondele, J; Weber, V; Hutter, J. 
 PARALLEL COMPUTING, 40 (5-6), 47-58 (2014). 
 Sparse matrix multiplication: The distributed block-compressed sparse
 row library.
 https://doi.org/10.1016/j.parco.2014.03.012

 Hutter, J; Iannuzzi, M; Schiffmann, F; VandeVondele, J. 
 WIREs Comput Mol Sci., 4 (1), 15-25 (2014). 
 CP2K: atomistic simulations of condensed matter systems.
 https://doi.org/10.1002/wcms.1159

 Grimme, S; Ehrlich, S; Goerigk, L. 
 JOURNAL OF COMPUTATIONAL CHEMISTRY, 32, 1456 (2011). 
 Effect of the damping function in dispersion corrected density functional theory.
 https://doi.org/10.1002/jcc.21759

 Grimme, S; Antony, J; Ehrlich, S; Krieg, H. 
 JOURNAL OF CHEMICAL PHYSICS, 132 (15), 154104 (2010). 
 A consistent and accurate ab initio parametrization of density
 functional dispersion correction (DFT-D) for the 94 elements H-Pu.
 https://doi.org/10.1063/1.3382344

 VandeVondele, J; Hutter, J. 
 JOURNAL OF CHEMICAL PHYSICS, 127 (11), 114105 (2007). 
 Gaussian basis sets for accurate calculations on molecular systems in
 gas and condensed phases.
 https://doi.org/10.1063/1.2770708

 Krack, M. 
 THEORETICAL CHEMISTRY ACCOUNTS, 114 (1-3), 145-152 (2005). 
 Pseudopotentials for H to Kr optimized for gradient-corrected
 exchange-correlation functionals.
 https://doi.org/10.1007/s00214-005-0655-y

 Frigo, M; Johnson, SG. 
 PROCEEDINGS OF THE IEEE, 93 (2), 216-231 (2005). 
 The design and implementation of FFTW3.
 https://doi.org/10.1109/JPROC.2004.840301

 Lippert, G; Hutter, J; Parrinello, M. 
 THEORETICAL CHEMISTRY ACCOUNTS, 103 (2), 124-140 (1999). 
 The Gaussian and augmented-plane-wave density functional method for ab
 initio molecular dynamics simulations.
 https://doi.org/10.1007/s002140050523

 Krack, M; Parrinello, M. 
 PHYSICAL CHEMISTRY CHEMICAL PHYSICS, 2 (10), 2105-2112 (2000). 
 All-electron ab-initio molecular dynamics.
 https://doi.org/10.1039/b001167n

 Hartwigsen, C; Goedecker, S; Hutter, J. 
 PHYSICAL REVIEW B, 58 (7), 3641-3662 (1998). 
 Relativistic separable dual-space Gaussian pseudopotentials from H to Rn.
 https://doi.org/10.1103/PhysRevB.58.3641

 Perdew, JP; Burke, K; Ernzerhof, M. 
 PHYSICAL REVIEW LETTERS, 77 (18), 3865-3868 (1996). 
 Generalized gradient approximation made simple.
 https://doi.org/10.1103/PhysRevLett.77.3865

 Goedecker, S; Teter, M; Hutter, J. 
 PHYSICAL REVIEW B, 54 (3), 1703-1710 (1996). 
 Separable dual-space Gaussian pseudopotentials.
 https://doi.org/10.1103/PhysRevB.54.1703


 -------------------------------------------------------------------------------
 -                                                                             -
 -                                T I M I N G                                  -
 -                                                                             -
 -------------------------------------------------------------------------------
 SUBROUTINE                       CALLS  ASD         SELF TIME        TOTAL TIME
                                MAXIMUM       AVERAGE  MAXIMUM  AVERAGE  MAXIMUM
 CP2K                                 1  1.0    5.215    5.229  250.256  250.264
 qs_energies                          1  2.0    0.002    0.004  244.378  244.379
 scf_env_do_scf                       1  3.0    0.001    0.002  235.345  235.582
 scf_env_do_scf_inner_loop           21  4.0    0.003    0.006  235.344  235.581
 qs_scf_new_mos                      21  5.0    0.001    0.002  136.220  136.356
 eigensolver_symm                    21  6.0    0.002    0.003  133.745  133.800
 cp_fm_syevd                         22  6.9    0.001    0.001  107.853  107.927
 cp_fm_redistribute_end              22  7.9   24.083  107.623   24.102  107.624
 cp_fm_syevd_base                    22  7.9   83.311  107.240   83.311  107.240
 qs_ks_update_qs_env                 21  5.0    0.000    0.000   63.406   63.487
 rebuild_ks_matrix                   21  6.0    0.000    0.000   63.385   63.467
 qs_ks_build_kohn_sham_matrix        21  7.0    0.007    0.010   63.384   63.466
 rs_pw_transfer                     217  9.4    0.003    0.003   27.424   33.948
 pw_transfer                        467  9.9    0.042    0.058   31.930   32.312
 fft_wrap_pw1pw2                    404 11.0    0.004    0.006   31.673   32.031
 fft_wrap_pw1pw2_200                275 12.3    1.740    1.861   30.385   30.795
 qs_rho_update_rho_low               22  5.0    0.000    0.000   29.378   29.409
 calculate_rho_elec                  22  6.0    0.063    0.082   29.368   29.400
 fft3d_ps                           404 13.0    9.067   11.022   26.747   27.370
 sum_up_and_integrate                21  8.0    0.141    0.192   25.569   25.581
 integrate_v_rspace                  21  9.0    0.001    0.001   25.428   25.456
 density_rs2pw                       22  7.0    0.002    0.002   15.547   21.987
 qs_vxc_create                       21  8.0    0.001    0.005   21.703   21.708
 xc_vxc_pw_create                    21  9.0    0.316    0.332   21.701   21.706
 cp_fm_symm                          21  7.0   16.672   16.865   16.672   16.865
 mp_waitany                        5760 11.4    9.464   16.703    9.464   16.703
 xc_pw_derive                       126 11.0    0.002    0.002   16.197   16.468
 rs_pw_transfer_RS2PW_200            45  9.9    4.861    5.316    9.169   16.203
 grid_collocate_task_list            22  7.0   12.762   15.713   12.762   15.713
 mp_alltoall_z22v                   404 15.0   14.863   15.608   14.863   15.608
 parallel_gemm_fm                    42  7.0    0.000    0.000   14.634   14.841
 parallel_gemm_fm_cosma              42  8.0   14.634   14.841   14.634   14.841
 grid_integrate_task_list            21 10.0   10.483   13.077   10.483   13.077
 potential_pw2rs                     21 10.0    0.006    0.007   12.019   12.062
 xc_rho_set_and_dset_create          21 10.0    0.177    0.189   10.291   11.183
 xc_pw_divergence                    21 10.0    0.001    0.001   10.737   10.959
 mp_alltoall_d11v                   301  9.2    4.171    9.821    4.171    9.821
 x_to_yz                            168 14.0    1.727    2.379    9.237    9.393
 rs_pw_transfer_PW2RS_200            43 10.9    4.743    4.869    8.815    8.989
 yz_to_x                            150 14.4    0.840    0.967    8.156    8.723
 rs_gather_matrices                  21 10.0    0.021    0.030    2.925    8.541
 init_scf_run                         1  3.0    0.000    0.000    7.337    7.338
 prepare_gapw_den                    21  8.0    0.000    0.000    7.122    7.174
 put_rho0_on_grid                    21  9.0    0.060    0.081    7.116    7.168
 gspace_mixing                       20  5.0    0.058    0.076    6.421    6.422
 cp_fm_power                          1  4.0    0.025    0.028    5.808    5.814
 integrate_vhg0_rspace               21  8.0    0.001    0.001    5.504    5.584
 -------------------------------------------------------------------------------

 The number of warnings for this run is : 2
 
 -------------------------------------------------------------------------------
  **** **** ******  **  PROGRAM ENDED AT                 2023-04-26 10:54:29.161
 ***** ** ***  *** **   PROGRAM RAN ON                          f0233.nhr.fau.de
 **    ****   ******    PROGRAM RAN BY                                  b165da13
 ***** **    ** ** **   PROGRAM PROCESS ID                               3008059
  **** **  *******  **  PROGRAM STOPPED IN /home/atuin/b165da/b165da13/74_rerun_
                                           70_with_new_shifts/10_shift=-01.0pm
=== JOB_STATISTICS ===
=== current date     : Wed Apr 26 10:54:33 CEST 2023
= Job-ID             : 548022 on fritz
= Job-Name           : Defect_level_D_mode
= Job-Command        : /home/atuin/b165da/b165da13/74_rerun_70_with_new_shifts/10_shift=-01.0pm/run.slurm
= Initial workdir    : /home/atuin/b165da/b165da13/74_rerun_70_with_new_shifts/10_shift=-01.0pm/./
= Queue/Partition    : multinode
= Slurm account      : b165da with QOS=normal
= Requested resources: cpu=216,node=3,billing=216 for 04:00:00
= Elapsed runtime    : 00:04:28
= Total RAM usage    : 226.8 GiB 
= Node list          : f[0233,0240,0245]
= Subm/Elig/Start/End: 2023-04-26T10:46:17 / 2023-04-26T10:46:17 / 2023-04-26T10:50:04 / 2023-04-26T10:54:32
======================
=== Quota infos ======
    Path              Used     SoftQ    HardQ    Gracetime  Filec    FileQ    FiHaQ    FileGrace    
    /home/hpc         4403.5M    52.4G   104.9G        N/A      96K     500K   1,000K        N/A    
    /home/vault          0.0K   524.3G  1048.6G        N/A       1      200K     400K        N/A    
    /lustre              4.0K     0.0K     0.0K        N/A       1   20,000      250K        N/A    
======================
