 operating system is UNIX !
 hostname is         thnec245

 escf (thnec245) : TURBOMOLE V6.6( 19103 ) 21 May 2014 at 15:45:05
 Copyright (C) 2014 TURBOMOLE GmbH, Karlsruhe


    2016-07-18 19:20:01.531 




                                e s c f

                       quantum chemistry group
                       university of karlsruhe
                               germany


          integral direct evaluation of 

                    * excitation energies and transition moments 
                    * dynamic response properties 
                    * stabilities



          references (see also programs dscf and ridft) 

          implementation and benchmarks (review) 
          F. Furche and D. Rappoport,  
          "Density functional methods for excited states: 
          equilibrium structure and electronic spectra",
          ch. III of "Computational Photochemistry", ed. by 
          M. Olivucci, vol. 16 of "Theoretical and Computational 
          Chemistry", Elsevier, Amsterdam, 2005.

          two-component TDDFT with spin-orbit coupling 
          M. Kuehn and F. Weigend, 
          J. Chem. Theory Comput. 9 (2013), 5341.

          GW quasi particle energies
          M. J. van Setten, F. Weigend, and F. Evers,
          J. Chem. Theory Comput. 9 (2013), 232.

          Current-density dependent meta-GGA Linear Response
          J. E. Bates and F. Furche, 
          J. Chem. Phys. 137 (2012), 164105.

          spin-flip method 
          M. Kuehn and F. Weigend, 
          Chem. Phys. Chem. 12 (2011), 3331.

          RI-J method 
          R. Bauernschmitt, M. Haeser, O. Treutler, and R. Ahlrichs,
          Chem. Phys. Lett. 264 (1997), 573.

          density functional implementation               
          R. Bauernschmitt and R. Ahlrichs,
          Chem. Phys. Lett. 256 (1996), 454.
          R. Bauernschmitt and R. Ahlrichs,
          J. Chem. Phys. 104 (1996), 9047.

          UHF extension (RPA and CIS)
          C. Ochsenfeld, J. Gauss, and R. Ahlrichs, 
          J. Chem. Phys. 103 (1995), 7401.

          integral direct algorithm                 
          H. Weiss, R. Ahlrichs, and M. Haeser, 
          J. Chem. Phys. 99 (1993), 1262.
                                     




              +--------------------------------------------------+
              | Atomic coordinate, charge and isotop information |
              +--------------------------------------------------+

                    atomic coordinates            atom    charge  isotop
          2.63118538   -0.00000000   -0.00000014    c      6.000     0
          1.31559339    2.27867499    0.00000022    c      6.000     0
         -1.31559339    2.27867499   -0.00000021    c      6.000     0
         -2.63118538   -0.00000000    0.00000014    c      6.000     0
         -1.31559339   -2.27867499   -0.00000022    c      6.000     0
          1.31559339   -2.27867499    0.00000021    c      6.000     0
          4.67672346    0.00000000   -0.00000037    h      1.000     0
          2.33836541    4.05016280    0.00000028    h      1.000     0
         -2.33836541    4.05016280   -0.00000025    h      1.000     0
         -4.67672346    0.00000000    0.00000030    h      1.000     0
         -2.33836541   -4.05016280   -0.00000030    h      1.000     0
          2.33836541   -4.05016280    0.00000034    h      1.000     0
 
       center of nuclear mass  :   -0.00000000   -0.00000000    0.00000000
       center of nuclear charge:   -0.00000000   -0.00000000    0.00000000

              +--------------------------------------------------+
              |               basis set information              |
              +--------------------------------------------------+

              we will work with the 1s 3p 5d 7f 9g ... basis set
              ...i.e. with spherical basis functions...

   type   atoms  prim   cont   basis
   ---------------------------------------------------------------------------
    c        6     34     19   def-TZVP   [5s3p1d|11s6p1d]
    h        6      8      6   def-TZVP   [3s1p|5s1p]
   ---------------------------------------------------------------------------
   total:   12    252    150
   ---------------------------------------------------------------------------

   total number of primitive shells          :   24
   total number of contracted shells         :   78
   total number of cartesian basis functions :  156
   total number of SCF-basis functions       :  150


 residuum convergence criterium   :  0.10E-04


 integral neglect threshold       :  0.21E-10
 integral storage threshold THIZE :  0.10E-04
 integral storage threshold THIME :         5

 RPA SINGLET-EXCITATION-CALCULATION 

 symmetry group of the molecule :   c1 

 the group has the following generators :
   c1(z)

    1 symmetry operations found

 there are 1 real representations :   a   

 maximum number of shells which are related by symmetry :  1

 IRREPs of excited states :   a   
 

 determining totally symmetric integral contributions 
    - equivalent to irreducible tensor elements - 
 which can be formed within each triple of representations :

             representation triple      contributions

              a     a     a               1

    mo occupation :
   irrep   mo's   occupied
    a      150       21
 
 number of basis functions   :          150
 number of occupied orbitals :           21
 

 biggest AO integral is expected to be     5.725698708
  MOs are in ASCII format !


 reading orbital data $scfmo  from file mos . 

 orbital characterization : scfconv=7
 
 all orbitals will be included in the transformation

 number of non-frozen orbitals          :   150
 number of non-frozen occupied orbitals :    21



 dimension of super-tensorspace: 2

          IRREP   tensor space dimension   number of roots

           a              2709                2709

 maximum number of Davidson iterations set to   25


 machine precision: 2.22D-16


 logfile sing_a    will be constructed


                       Block Davidson iteration


 total number of roots to be determined:2709


 maximum core memory set to   500 MB,
 corresponding to     1320 vectors in CAO basis


 maximum number of simultaneously treated vectors (including degeneracy): ***


 Recommendation for optimum performance: Increase the maximum amount of
 allocatable core memory (e.g. $rpacor, $maxcor) to     2709 MB or to the
 maximum amount of core memory available on your machine.


 Iteration IRREP Converged      Max. Euclidean
                 roots          residual norm

    1       a     2709        9.471024094158275D-09
 

 converged!

 Eigenpairs written on logfile sing_a   


 IRREP   Vector     Eigenvalue           Euclidean residual norm

  a         1    2.184019454094432D-01    4.147491538158357D-12
            2    2.195551705780062D-01    2.377318841513844D-11
            3    2.791030112062879D-01    2.228658131409623D-11
            4    2.791033223003831D-01    3.100994468279364D-11
            5    3.067493935559287D-01    2.711799618992746D-12
            6    3.067505404201152D-01    2.539710706910778D-12
            7    3.271168079073484D-01    3.869467468815062D-12
            8    3.399712329157724D-01    2.365066024706260D-12
            9    3.464899902265923D-01    4.944618178823029D-12
           10    3.464899919357911D-01    3.715326021830374D-12
           11    3.524181541479147D-01    5.101257418575082D-12
           12    3.524182080828357D-01    7.455918586817498D-12
           13    3.524990764120556D-01    6.892614347988198D-12
           14    3.715256343374809D-01    3.385969151315350D-12
           15    3.719927333438073D-01    4.355371699953812D-12
           16    3.781493596891474D-01    3.288750141799917D-12
           17    3.781494908271246D-01    3.133817673200081D-12
           18    3.800239827587325D-01    2.921508842318514D-12
           19    3.841935864362110D-01    3.117117861685007D-11
           20    3.841940247491811D-01    3.718184397630615D-11
           21    3.856169303937869D-01    4.000294800927463D-12
           22    3.856178581889539D-01    3.191971254264430D-12
           23    4.087895705122450D-01    2.765214749237447D-12
           24    4.087905879591651D-01    2.254981658990380D-12
           25    4.136611113873104D-01    5.664672442325491D-12
           26    4.136615274589401D-01    4.231599786090921D-12
           27    4.191864900923085D-01    7.855257077399714D-12
           28    4.468777931942584D-01    2.110242031330919D-10
           29    4.468778949171644D-01    1.741123950168602D-10
           30    4.540046620620856D-01    4.542261473526204D-11
           31    4.540057578439909D-01    4.041056834776779D-11
           32    4.559913673367431D-01    2.024352118671140D-10
           33    4.559922526012806D-01    1.358286354970201D-10
           34    4.589348479474258D-01    4.955354221640690D-12
           35    4.589353488479655D-01    3.705916656116961D-12
           36    4.617215977713273D-01    1.955171616811410D-12
           37    4.617225925217707D-01    2.440714230924705D-12
           38    4.689035078570930D-01    1.749443683472496D-10
           39    4.727187247493261D-01    1.655936289668882D-12
           40    4.757344160435454D-01    3.017366154314917D-12
           41    4.774745236772060D-01    2.275175790885482D-12
           42    4.774745295456143D-01    2.129993547695692D-12
           43    4.841378541195405D-01    1.498657481762731D-12
           44    4.847512505415644D-01    2.330770315690377D-10
           45    4.854044797420720D-01    4.946172321046432D-12
           46    4.854045160677739D-01    5.790480605076943D-12
           47    4.861568937599750D-01    4.272415131512911D-10
           48    4.861570035329870D-01    2.948467526067522D-10
           49    4.915964738745562D-01    7.983809541185993D-12
           50    4.923797233746374D-01    2.318189738687617D-12
           51    4.945623176507489D-01    4.530446874286314D-12
           52    4.984941833772295D-01    9.141311659208885D-11
           53    5.067861245376615D-01    3.748712670246213D-11
           54    5.067863236394624D-01    4.346858977521516D-11
           55    5.112541959755069D-01    1.208627032508786D-10
           56    5.140130748513954D-01    2.801372213070250D-10
           57    5.140132864236611D-01    3.846668437744706D-10
           58    5.211554054796660D-01    7.328332314030758D-12
           59    5.224543982366521D-01    5.935508442273580D-12
           60    5.224545310342653D-01    5.054204561631039D-12
           61    5.244222893381487D-01    5.195559027245080D-12
           62    5.327650377408030D-01    3.814694969659771D-12
           63    5.327652455584106D-01    3.109067951715404D-12
           64    5.333401109198039D-01    5.544009229224613D-12
           65    5.333402941964606D-01    6.044442470487399D-12
           66    5.347466262179672D-01    4.349545635634650D-12
           67    5.374076882530581D-01    3.161790935938412D-10
           68    5.416446571244294D-01    1.391553861189421D-09
           69    5.416449812238593D-01    2.159447581927630D-09
           70    5.456597489110152D-01    1.323103036976748D-10
           71    5.456598819951116D-01    1.287166083117710D-10
           72    5.575523174873621D-01    5.950610369697188D-12
           73    5.575527107127778D-01    9.297831167878009D-12
           74    5.664282512489499D-01    6.312796543547270D-12
           75    5.664283616943497D-01    5.239443839847202D-12
           76    5.726090820103038D-01    6.341163971472231D-12
           77    5.783512407520797D-01    7.097968953309235D-10
           78    5.783514935061820D-01    1.074267911956181D-09
           79    5.822906876799374D-01    5.841050804566469D-12
           80    5.885766061102553D-01    2.315569766376437D-11
           81    5.885775435396955D-01    1.676325853499405D-11
           82    5.895840994330924D-01    9.029019994598219D-11
           83    5.904009085834578D-01    1.702201841719172D-10
           84    5.904009157864006D-01    1.263929510694454D-10
           85    5.925413545742279D-01    5.814646892000770D-11
           86    5.936367966565520D-01    7.211225549657351D-10
           87    5.936368322202817D-01    5.039865702381761D-10
           88    6.052247057777999D-01    1.761859876667141D-10
           89    6.052248970999826D-01    2.616213520212165D-10
           90    6.068985852496300D-01    1.756472327917748D-10
           91    6.089278619046707D-01    7.333435663345908D-11
           92    6.111475519986053D-01    8.522125852015696D-12
           93    6.111476054225050D-01    1.223299916212651D-11
           94    6.115624634667126D-01    3.472128605066201D-10
           95    6.141148017880518D-01    1.535696077792659D-11
           96    6.177756959357016D-01    3.352198981911623D-10
           97    6.179121778370872D-01    1.758826802499714D-10
           98    6.179125192737990D-01    2.113627529132806D-10
           99    6.180433696220313D-01    5.778439347493671D-12
          100    6.180435326910217D-01    4.154113712819710D-12
          101    6.189722346871210D-01    2.009938134976921D-10
          102    6.189723241807531D-01    2.311814684344206D-10
          103    6.207826389418228D-01    6.543743385666362D-12
          104    6.207829070335869D-01    5.944990965397166D-12
          105    6.217647749063234D-01    6.876441504022800D-11
          106    6.237071042707140D-01    1.665516184169984D-12
          107    6.248458062087308D-01    5.926878407277327D-12
          108    6.262749878398765D-01    9.187268925561318D-11
          109    6.267470593878297D-01    2.167820751750304D-10
          110    6.278114391311476D-01    1.115249054463867D-11
          111    6.304062975242264D-01    2.260511425563518D-10
          112    6.345209485618277D-01    6.705433804384903D-10
          113    6.345214284459216D-01    1.050438414908485D-09
          114    6.380288387825310D-01    5.897020567977707D-10
          115    6.417220613536918D-01    3.184906204523163D-10
          116    6.435804315659178D-01    1.521455707398940D-11
          117    6.449688411369495D-01    8.543111413450813D-12
          118    6.449692256916327D-01    9.128190234970971D-12
          119    6.467757285133618D-01    9.522403082300888D-10
          120    6.467759129474488D-01    1.464000095175674D-09
          121    6.501627021629374D-01    3.051840524144385D-12
          122    6.508390154530930D-01    6.358044705877842D-10
          123    6.603918262650356D-01    6.060373292464674D-12
          124    6.603919247755944D-01    5.200666467608606D-12
          125    6.652942886532195D-01    4.146005979165869D-12
          126    6.666259000333410D-01    1.199360707109342D-09
          127    6.666262046098321D-01    1.910462449426725D-09
          128    6.670303999577244D-01    2.462909072348700D-10
          129    6.670307888019211D-01    3.403911663215845D-10
          130    6.720061974835293D-01    1.040453393272303D-09
          131    6.720062247613038D-01    1.616949674696916D-09
          132    6.745307745425579D-01    1.028445388655198D-11
          133    6.756713457513611D-01    1.347732510953447D-11
          134    6.756720221263885D-01    1.168479102987873D-11
          135    6.759745129700547D-01    2.201090046966107D-10
          136    6.759748014170125D-01    2.843885134646214D-10
          137    6.759995545658271D-01    1.847040945392154D-10
          138    6.795020269358084D-01    7.668799600076254D-12
          139    6.795027362786067D-01    6.427282258493981D-12
          140    6.831278805311559D-01    4.858653487010576D-12
          141    6.831280672608540D-01    4.214376419009952D-12
          142    6.851314019283564D-01    4.695555709758525D-10
          143    6.860685413558614D-01    1.450641720802295D-10
          144    6.894221852050451D-01    1.064737006407073D-11
          145    6.903242814604179D-01    3.003768944411894D-10
          146    6.907023785367312D-01    8.947065067456060D-11
          147    6.928601297109356D-01    3.988125989321765D-12
          148    6.928603734297445D-01    3.776985516835957D-12
          149    6.935949891418399D-01    6.130863530192012D-10
          150    6.935950332537923D-01    4.114230648439142D-10
          151    6.953219325291286D-01    6.485480022920577D-10
          152    6.953221206337319D-01    4.305158370166066D-10
          153    6.975418602279132D-01    1.477394622480379D-10
          154    6.975427728252456D-01    1.121934843076581D-10
          155    6.996204135219319D-01    5.437981362802525D-12
          156    6.996215197928440D-01    6.844568561477615D-12
          157    7.043023214999860D-01    4.492439480019653D-10
          158    7.043025029312712D-01    3.390875436557211D-10
          159    7.045048732179566D-01    1.169940381411192D-11
          160    7.045051469137599D-01    1.309084946005845D-11
          161    7.122935981096100D-01    1.503917834793585D-11
          162    7.122945631035305D-01    1.071928750168725D-11
          163    7.145171712911804D-01    3.964012382474890D-10
          164    7.145172549586202D-01    2.905483708135054D-10
          165    7.158728916931715D-01    1.156335980529863D-11
          166    7.163050738131186D-01    1.557795201296871D-09
          167    7.231006058230779D-01    2.309217532466164D-09
          168    7.255912552427058D-01    1.205514572343112D-11
          169    7.303903755048728D-01    5.781375634997963D-12
          170    7.303908530733942D-01    7.067972015178270D-12
          171    7.305612964362506D-01    6.777581080535004D-12
          172    7.313720429537635D-01    1.989294472860960D-10
          173    7.314516817549354D-01    6.465326679178011D-12
          174    7.314518083352144D-01    1.133928568717544D-11
          175    7.326617222838608D-01    1.384340943554399D-10
          176    7.356089613368308D-01    2.547812763989658D-10
          177    7.356094386564285D-01    3.624437274124475D-10
          178    7.362002652656926D-01    6.805162558683748D-12
          179    7.362003139135205D-01    8.229045444847860D-12
          180    7.424757816278219D-01    3.532945213232746D-10
          181    7.424758360491605D-01    2.954216844050289D-10
          182    7.426160842721746D-01    2.099805778390736D-10
          183    7.434677176476853D-01    3.838970783413320D-12
          184    7.451562730970636D-01    2.053928202915072D-10
          185    7.451568890429796D-01    1.682759210354018D-10
          186    7.469649896556422D-01    1.966405773097222D-12
          187    7.475254935234706D-01    4.895359005960495D-10
          188    7.486820443238497D-01    8.303029759278036D-10
          189    7.487132203349994D-01    2.013324224951236D-10
          190    7.487132719670088D-01    2.518330639908948D-10
          191    7.522416360500215D-01    1.982932632515264D-10
          192    7.522418730359420D-01    2.141802874453470D-10
          193    7.530342984341742D-01    2.266234206369084D-12
          194    7.574142733081982D-01    2.594265111870274D-12
          195    7.579548755830952D-01    1.599016571187470D-11
          196    7.579556031015966D-01    1.189699006190571D-11
          197    7.620333907557657D-01    3.499036267993820D-10
          198    7.620334353661579D-01    2.488169421936246D-10
          199    7.673513996666940D-01    1.763021675075025D-11
          200    7.683339228752354D-01    8.614449840951193D-11
          201    7.686553035035942D-01    6.246671855431960D-12
          202    7.686566744653653D-01    7.597432800910846D-12
          203    7.713279139706598D-01    5.390690070925644D-12
          204    7.713279152093295D-01    4.998070379041713D-12
          205    7.743534508195752D-01    1.129800810228736D-09
          206    7.743537344438077D-01    7.757177265297563D-10
          207    7.755271211527692D-01    1.160511466771803D-11
          208    7.815615068077987D-01    1.071220337284497D-10
          209    7.823254836028652D-01    4.421130043184929D-12
          210    7.830279697713781D-01    5.842796027047994D-12
          211    7.866780096569801D-01    8.678747556557962D-12
          212    7.866787172474397D-01    7.028734980903847D-12
          213    7.887289549488542D-01    2.435006505405890D-10
          214    7.887291779400010D-01    2.242868678137826D-10
          215    7.914811389866686D-01    1.049466331929875D-10
          216    7.914816077126526D-01    8.320769584731585D-11
          217    7.924058155319250D-01    1.357893753521743D-09
          218    7.924058194021316D-01    9.226531901249224D-10
          219    7.931631792759699D-01    2.431252042052293D-10
          220    7.944021844376664D-01    1.969962046885880D-09
          221    7.946643141364333D-01    1.516183926456590D-11
          222    7.970550463149852D-01    5.642352941956917D-12
          223    7.970553511569091D-01    6.358321531832526D-12
          224    7.976098185539918D-01    5.565980818371904D-12
          225    7.994683431124345D-01    6.148316187762866D-12
          226    7.994686936040185D-01    5.351018675766708D-12
          227    8.010327066809800D-01    4.137299937034997D-12
          228    8.010328862404951D-01    5.899531468184453D-12
          229    8.024617197829013D-01    4.694410698496513D-10
          230    8.024618581448606D-01    3.608967550557089D-10
          231    8.031611854672657D-01    5.414296374607119D-12
          232    8.070542545980981D-01    6.797386876133538D-12
          233    8.073327718278150D-01    2.016551056850828D-10
          234    8.073329514667781D-01    2.236941303059873D-10
          235    8.077400135867163D-01    2.754225781152800D-12
          236    8.102660725948527D-01    3.163013731447115D-10
          237    8.181170932797875D-01    1.481446159947196D-10
          238    8.182248247930475D-01    4.578432779470315D-10
          239    8.206706988826390D-01    3.147329652895432D-09
          240    8.206707471860223D-01    4.943505665682381D-09
          241    8.220822759709937D-01    3.683628598229872D-10
          242    8.220823116944384D-01    4.810347353983590D-10
          243    8.236060666158258D-01    1.294486453759383D-11
          244    8.236065345846016D-01    1.033587746711838D-11
          245    8.254627682805535D-01    1.227489042757495D-11
          246    8.276053288951969D-01    7.386649678450705D-10
          247    8.276053366963083D-01    1.126953949381349D-09
          248    8.364527420370715D-01    1.655215094105677D-10
          249    8.367967269479031D-01    2.695792055276538D-10
          250    8.367969954359964D-01    3.289557516147696D-10
          251    8.400148546886155D-01    4.381801345162907D-12
          252    8.402412987114648D-01    6.299170930281884D-10
          253    8.411936166999400D-01    1.388027986762595D-09
          254    8.411938155560680D-01    8.901620714076890D-10
          255    8.440000907476415D-01    1.118144064882775D-11
          256    8.440004019749401D-01    9.939433051594999D-12
          257    8.458729344082185D-01    8.205718160226384D-10
          258    8.483050276505893D-01    1.233507589063527D-10
          259    8.495310391360785D-01    8.125485309582609D-10
          260    8.495315257758758D-01    1.259520236444527D-09
          261    8.497975545880785D-01    1.041924846032963D-09
          262    8.497975807858844D-01    7.059526384863495D-10
          263    8.519309247189774D-01    4.023095975790177D-12
          264    8.519309448437837D-01    5.318688699098350D-12
          265    8.543227155466427D-01    1.773588391357418D-09
          266    8.543229211535617D-01    1.175135595429983D-09
          267    8.554000699836073D-01    2.154359792080090D-10
          268    8.618512939271177D-01    1.217408117561376D-10
          269    8.663226111754436D-01    9.763238574748019D-10
          270    8.674561157933027D-01    7.568840319720251D-10
          271    8.674565097695289D-01    1.129131037805627D-09
          272    8.675871533060060D-01    8.989915230696798D-12
          273    8.688861793914457D-01    4.529933537553438D-12
          274    8.715220620357872D-01    4.270109401760607D-10
          275    8.715220761501249D-01    3.387341142818214D-10
          276    8.717469499423327D-01    5.688008881344731D-12
          277    8.718478598118021D-01    2.715876335460165D-12
          278    8.730494766420368D-01    4.560416719737862D-12
          279    8.730494966598751D-01    4.546745609163967D-12
          280    8.784025984613524D-01    9.952254955843772D-10
          281    8.784029210282379D-01    1.531568594818472D-09
          282    8.784340759592676D-01    3.035086462903814D-10
          283    8.836254893558416D-01    1.352384521291924D-10
          284    8.870085513741265D-01    4.557454659179236D-10
          285    8.870085985277070D-01    6.291584665492255D-10
          286    8.871048774531667D-01    6.138412737141376D-10
          287    8.874244527553130D-01    1.323741130390154D-10
          288    8.890224014554656D-01    7.680369996244346D-10
          289    8.890224453975343D-01    9.558357642194793D-10
          290    8.922026465720687D-01    1.803639812184541D-09
          291    8.963189811803698D-01    3.450223603216195D-10
          292    8.963191632108006D-01    5.087102507168762D-10
          293    8.963813234570266D-01    1.525279326528386D-11
          294    8.963818403898588D-01    1.422168976562544D-11
          295    8.991051270110216D-01    3.540612485286485D-12
          296    8.996720310064513D-01    7.394557720545383D-10
          297    8.996722043596800D-01    8.546400515700477D-10
          298    9.012731911869091D-01    5.302489756607914D-12
          299    9.012732330296787D-01    5.095326794776282D-12
          300    9.030461356849522D-01    1.457070290903118D-11
          301    9.038509180142665D-01    1.263790303094314D-11
          302    9.038511052852861D-01    1.545255463384482D-11
          303    9.056634372366205D-01    1.262176421848142D-10
          304    9.077075437910410D-01    6.560749865082064D-10
          305    9.077076855944443D-01    5.047141195592909D-10
          306    9.099236078390259D-01    1.296710592571454D-11
          307    9.123120180799495D-01    3.387570479546076D-10
          308    9.216956119493386D-01    4.628788263738040D-12
          309    9.216959842997563D-01    5.169111923663170D-12
          310    9.239864396106553D-01    6.291273097744323D-10
          311    9.259907812071271D-01    2.365607753743080D-10
          312    9.259908420385664D-01    2.274411006649210D-10
          313    9.262359317125338D-01    1.281010577033494D-09
          314    9.262361210124874D-01    1.915073302336390D-09
          315    9.274339085125899D-01    6.377880355960275D-10
          316    9.274339633614722D-01    9.435319461984402D-10
          317    9.278833403527087D-01    2.284573279502639D-10
          318    9.340834835862807D-01    1.212805209391581D-09
          319    9.340836747133305D-01    8.064847350646750D-10
          320    9.367422039698434D-01    1.478409495383643D-09
          321    9.373406715029609D-01    8.264012480725162D-12
          322    9.373407293203296D-01    6.645664724875134D-12
          323    9.384346339282286D-01    7.900733636970527D-12
          324    9.384349680745063D-01    5.945056863776906D-12
          325    9.411413700794125D-01    1.731166270431554D-11
          326    9.479233037695149D-01    6.137354566773777D-12
          327    9.479235716302993D-01    4.667044925299056D-12
          328    9.488941742193890D-01    2.800392179272988D-09
          329    9.488945837959185D-01    4.457968357154802D-09
          330    9.518639945377740D-01    3.388711749927499D-12
          331    9.518642463973052D-01    3.575457558026033D-12
          332    9.561500413220289D-01    3.787855926752566D-12
          333    9.561500809143557D-01    4.221140338274301D-12
          334    9.573399647942369D-01    5.369173361474245D-10
          335    9.573400142091544D-01    8.135375474400741D-10
          336    9.606501051258628D-01    5.051488356934405D-10
          337    9.606942424267322D-01    3.654362419591598D-10
          338    9.606945720389448D-01    3.584488372289267D-10
          339    9.610717364363692D-01    9.032159881069912D-12
          340    9.610718245319606D-01    1.099455874235384D-11
          341    9.622558740341046D-01    2.055745245468836D-10
          342    9.641866827255484D-01    3.345867036822740D-11
          343    9.663726533655217D-01    1.921139752304317D-11
          344    9.687106674523497D-01    2.232503286280537D-11
          345    9.687107405507891D-01    1.889169196479635D-11
          346    9.692690931085977D-01    4.519269856486653D-10
          347    9.692692244250407D-01    3.015743140560788D-10
          348    9.698820843087943D-01    1.652521729505848D-12
          349    9.718581302702333D-01    1.213302294209689D-09
          350    9.763395817256709D-01    4.037770515966505D-10
          351    9.763397533075965D-01    5.570798046804802D-10
          352    9.771170130398027D-01    8.680248811783762D-10
          353    9.771171587874634D-01    6.303747836115919D-10
          354    9.817431614798003D-01    4.518728159749656D-10
          355    9.820324331025763D-01    1.041084573798253D-10
          356    9.820918999258530D-01    2.221852455086626D-10
          357    9.833098838952292D-01    1.074975682680636D-09
          358    9.833099171990931D-01    1.655751634183869D-09
          359    9.856202336530844D-01    1.039397368946249D-09
          360    9.906932698842749D-01    2.930188641193430D-10
          361    9.906936871841081D-01    3.391290915946690D-10
          362    9.930302203959355D-01    3.522357773094684D-12
          363    9.930308363259157D-01    3.403395186753835D-12
          364    9.946519905744631D-01    6.117105429828712D-10
          365    9.946521556741955D-01    9.791568195845949D-10
          366    9.958219730275285D-01    1.384036811917341D-09
          367    9.968590557785451D-01    3.220025882374380D-10
          368    9.968593552580803D-01    4.595414341441617D-10
          369    9.983396971179559D-01    3.274117619367962D-09
          370    9.987954971482126D-01    7.482589422168908D-10
          371    9.987958515801915D-01    1.058860489908445D-09
          372    9.988674672861918D-01    3.687287937034699D-10
          373    1.002518210297124D+00    7.902792665483735D-12
          374    1.004086863010165D+00    1.833501738183310D-10
          375    1.004386895972074D+00    4.081799973076068D-12
          376    1.007359993514102D+00    1.436753621859655D-10
          377    1.008941398119027D+00    5.600250407686983D-10
          378    1.011614317726581D+00    7.338674378171023D-12
          379    1.012190817089275D+00    5.441928671305654D-10
          380    1.012191038808010D+00    4.026954371564805D-10
          381    1.012419129408086D+00    8.458809648181514D-10
          382    1.012419622045553D+00    1.266190285675766D-09
          383    1.013097139943896D+00    3.836648493957337D-09
          384    1.014012831274257D+00    4.929290675351166D-12
          385    1.014012851767772D+00    4.696819587753712D-12
          386    1.017491608151638D+00    5.180237641280003D-12
          387    1.017491930662408D+00    5.380418846035703D-12
          388    1.017871751109520D+00    2.577515539996418D-09
          389    1.021274916420064D+00    1.811829977570998D-09
          390    1.021275405938427D+00    1.127957928857852D-09
          391    1.022672038310141D+00    1.026698009115613D-09
          392    1.022672254636482D+00    1.575881647453114D-09
          393    1.025999416954496D+00    2.551847311413915D-10
          394    1.026434986503599D+00    1.287470905187063D-11
          395    1.026435624869423D+00    1.339452962470855D-11
          396    1.027176941272620D+00    1.126328994058442D-11
          397    1.027178296953523D+00    7.548824284124069D-12
          398    1.030869574076982D+00    1.398266705912185D-09
          399    1.030869672821651D+00    1.025545698613278D-09
          400    1.031513479233081D+00    8.954177289042910D-10
          401    1.031513757636401D+00    6.014865150150591D-10
          402    1.040830743595103D+00    4.118632650910703D-10
          403    1.040831198211959D+00    4.559505090846464D-10
          404    1.041151842764452D+00    2.220685421162233D-10
          405    1.048406768984740D+00    3.287356479432784D-10
          406    1.049148850339523D+00    2.512918354896377D-10
          407    1.052646503794492D+00    4.668848706985218D-10
          408    1.052646583577202D+00    5.490755497944843D-10
          409    1.053579683449472D+00    5.990625658272722D-10
          410    1.053844626915743D+00    1.345143128737575D-10
          411    1.056586458937082D+00    4.931566601519666D-11
          412    1.058293246733917D+00    4.395035371636723D-10
          413    1.058293776264254D+00    4.400616595641811D-10
          414    1.062589198626351D+00    3.709700674157235D-10
          415    1.063658588405575D+00    9.302416565549174D-10
          416    1.064552740809601D+00    1.519975411742877D-09
          417    1.065943397405154D+00    8.284960104934600D-10
          418    1.065943403450049D+00    5.716014773467286D-10
          419    1.066834942855830D+00    3.241598984399619D-11
          420    1.066835364357060D+00    3.721585636608339D-11
          421    1.067291377916784D+00    5.485574253277176D-10
          422    1.067291680615467D+00    7.875858135982625D-10
          423    1.068673987560597D+00    1.365092491152275D-09
          424    1.068803916930753D+00    3.642616925731509D-10
          425    1.068804073922140D+00    4.817639251330987D-10
          426    1.070951187869855D+00    4.011375753405722D-10
          427    1.076110244964970D+00    8.700067546187047D-10
          428    1.078421299890805D+00    3.605297627541314D-11
          429    1.081120370146606D+00    4.252561576401609D-10
          430    1.081120627830265D+00    4.792909276433795D-10
          431    1.085110557027774D+00    2.613136232222096D-10
          432    1.088151840117054D+00    4.081137059400605D-10
          433    1.088152057417930D+00    4.745916710337520D-10
          434    1.088638595332340D+00    6.080366050483336D-10
          435    1.088639265716773D+00    8.094501880396089D-10
          436    1.091409092474973D+00    4.203545881778142D-09
          437    1.091573931466056D+00    1.213287930599452D-09
          438    1.091574205688713D+00    7.538107649411331D-10
          439    1.093465301889426D+00    7.913745538153508D-12
          440    1.098332568303138D+00    2.484777743926820D-12
          441    1.098332686549516D+00    4.180022381304568D-12
          442    1.099304568920228D+00    6.776513007826526D-12
          443    1.103844032708385D+00    2.638953138972011D-12
          444    1.111757767417738D+00    1.886116700324012D-09
          445    1.111758099152552D+00    1.335638822306068D-09
          446    1.115156625165748D+00    9.382177395857696D-10
          447    1.115157086346456D+00    7.319568374629741D-10
          448    1.116200443791871D+00    2.066174946510741D-10
          449    1.117154867835030D+00    1.234723194827803D-09
          450    1.118482632123351D+00    4.812918292663116D-10
          451    1.118482843600195D+00    5.965511983981864D-10
          452    1.123967183100484D+00    7.713679693744896D-10
          453    1.124731784025711D+00    6.208718711169174D-10
          454    1.126845907694138D+00    2.496744063460358D-12
          455    1.126846576446273D+00    3.314836637006072D-12
          456    1.130051361676433D+00    3.103408825687094D-10
          457    1.130051428292341D+00    3.703050842791916D-10
          458    1.130122853657147D+00    2.533161346031296D-10
          459    1.130897857567815D+00    2.539603590573113D-10
          460    1.134518560228995D+00    4.841986932744810D-10
          461    1.134518589769723D+00    3.733251876225031D-10
          462    1.135017008130038D+00    1.895119629535327D-09
          463    1.135017012232215D+00    1.314912005208180D-09
          464    1.141459446567245D+00    1.192567796283978D-11
          465    1.141459896503238D+00    1.296779172372756D-11
          466    1.144606077638509D+00    5.718644761920564D-10
          467    1.148190251576191D+00    3.081341865060477D-11
          468    1.148190684480113D+00    3.304632890035469D-11
          469    1.150120747221932D+00    5.260199008370767D-10
          470    1.150120752755517D+00    3.498825537313106D-10
          471    1.156889591467886D+00    8.572695600446298D-10
          472    1.159060498471572D+00    1.028888020144453D-10
          473    1.160053961953676D+00    1.030773328271243D-09
          474    1.160053998860020D+00    1.480188371824653D-09
          475    1.166188222155224D+00    1.854078055457914D-10
          476    1.166188325877095D+00    1.758394545653818D-10
          477    1.167695888385190D+00    8.732955925902164D-10
          478    1.170287453555212D+00    4.266258478786693D-10
          479    1.170551531452424D+00    2.684279822776452D-11
          480    1.172240670251404D+00    5.270507089847701D-10
          481    1.172240674296181D+00    7.855272384126567D-10
          482    1.173921850178796D+00    3.894604459122801D-09
          483    1.173922083385254D+00    5.715698569072601D-09
          484    1.180332168454258D+00    2.153005949264993D-10
          485    1.182059495820393D+00    1.013083007831625D-09
          486    1.182059545287969D+00    8.616353803081904D-10
          487    1.182510521810322D+00    3.724761105502892D-12
          488    1.185214131245200D+00    2.759234188107750D-09
          489    1.185214165139017D+00    1.937118269645872D-09
          490    1.185868764467117D+00    4.800468516645982D-12
          491    1.185869009767340D+00    4.186146255162209D-12
          492    1.187114196961038D+00    4.635381260096818D-12
          493    1.187114217480497D+00    4.450935908437651D-12
          494    1.193182980357241D+00    4.490966927834071D-09
          495    1.193183308126817D+00    2.682839365009417D-09
          496    1.194269973458389D+00    5.324741200553601D-10
          497    1.194270310302264D+00    3.802382665629626D-10
          498    1.195114677028202D+00    3.571333252656755D-10
          499    1.195391695659145D+00    1.662281761719752D-09
          500    1.199240387930813D+00    6.361641119062164D-10
          501    1.199240658190606D+00    6.320555277812713D-10
          502    1.200280123886089D+00    3.820196115074222D-12
          503    1.200386228723517D+00    1.639066407243900D-10
          504    1.201236057355449D+00    5.078325913724968D-10
          505    1.207390845510909D+00    3.241652072846239D-11
          506    1.207391194747487D+00    2.585471564753728D-11
          507    1.207902107625492D+00    2.017024203431639D-10
          508    1.209020972339649D+00    1.017658711777644D-09
          509    1.209021050874928D+00    7.554675405259789D-10
          510    1.212903865605942D+00    2.368383270259992D-12
          511    1.213563759278632D+00    1.518812823139914D-09
          512    1.213563797179919D+00    2.471040922797147D-09
          513    1.213746655196916D+00    7.371912763598212D-10
          514    1.213746789561763D+00    5.277219022342844D-10
          515    1.214228342175433D+00    1.071573721690946D-09
          516    1.222414762794502D+00    5.201615702937873D-10
          517    1.222414955535393D+00    7.346848202498190D-10
          518    1.222990111229943D+00    1.359724646059487D-09
          519    1.227101687831212D+00    1.717614715652643D-09
          520    1.228343169865479D+00    3.187679410599572D-10
          521    1.228792010656313D+00    3.114921376884751D-12
          522    1.232534082532796D+00    8.293546857734173D-10
          523    1.234826200756933D+00    1.462127041059083D-09
          524    1.234826364594187D+00    2.257601330327599D-09
          525    1.238378670890419D+00    2.095101848532472D-09
          526    1.238378851724312D+00    1.425163663965171D-09
          527    1.239881108087307D+00    4.420365926761779D-10
          528    1.239881255910900D+00    3.797005693285873D-10
          529    1.240336883353842D+00    3.294381249941671D-10
          530    1.258448459406802D+00    7.279303095593835D-10
          531    1.259794986560624D+00    1.333982054248105D-10
          532    1.262259265296331D+00    2.460631515463884D-10
          533    1.262259401559580D+00    2.660144107583297D-10
          534    1.263004618399796D+00    3.826879614299968D-10
          535    1.263005024067728D+00    4.188723060812060D-10
          536    1.263350816254237D+00    3.102041543195272D-10
          537    1.269594309088111D+00    6.944619813021045D-11
          538    1.269595649441499D+00    4.847269074067195D-11
          539    1.271950502418086D+00    2.026567627722217D-09
          540    1.271950517350849D+00    1.337273462516249D-09
          541    1.276542943115649D+00    1.974978383873952D-09
          542    1.277125984412779D+00    1.336998148186949D-09
          543    1.277126401665144D+00    8.375657740694330D-10
          544    1.279862388854649D+00    5.261209599471011D-10
          545    1.282432060408378D+00    3.034176886617692D-12
          546    1.282432192826150D+00    2.358283491055774D-12
          547    1.283406387322741D+00    2.725471215319811D-12
          548    1.287277308231188D+00    3.379632093696755D-09
          549    1.287277598953720D+00    5.404110290023240D-09
          550    1.288395162525525D+00    3.177453237244541D-10
          551    1.288395286112691D+00    3.434477339488807D-10
          552    1.289899614632266D+00    2.909464488667089D-12
          553    1.295268318966329D+00    3.557387373097450D-09
          554    1.295268908626422D+00    5.694475953997230D-09
          555    1.295926705492886D+00    2.207880456343237D-12
          556    1.299265751571642D+00    1.846296220506990D-09
          557    1.299265954830299D+00    1.206323085441461D-09
          558    1.301897515771337D+00    8.650834869829503D-11
          559    1.305841460796899D+00    6.243603489296179D-10
          560    1.305841500848324D+00    4.949259557727669D-10
          561    1.306735707635989D+00    7.673288955373319D-10
          562    1.313531322384525D+00    2.266886087778487D-10
          563    1.313531333779075D+00    2.683868240388128D-10
          564    1.314811245860638D+00    3.005422372700155D-09
          565    1.314811399742733D+00    1.930491795839027D-09
          566    1.321205167498328D+00    2.068844738307308D-10
          567    1.322858263047075D+00    1.942881571182262D-09
          568    1.329118365668955D+00    1.979480743393621D-10
          569    1.336913626252324D+00    1.544917724430982D-09
          570    1.336913803826166D+00    9.563549386944133D-10
          571    1.337374194839151D+00    3.773788620240997D-10
          572    1.340205462146127D+00    4.962289777258792D-10
          573    1.343024077994057D+00    1.551787146296477D-09
          574    1.343024197049846D+00    1.005205125360390D-09
          575    1.348020598634663D+00    2.541019288031447D-12
          576    1.348020771639737D+00    1.782834284195491D-12
          577    1.355570039806622D+00    3.784795027818766D-10
          578    1.355570207322366D+00    4.679313512318867D-10
          579    1.359709908079974D+00    7.689354771695970D-09
          580    1.360961533883955D+00    1.384463706742895D-09
          581    1.360961902144229D+00    1.863269591754291D-09
          582    1.366311716268150D+00    3.925108825823084D-12
          583    1.366311980775609D+00    3.575500651296958D-12
          584    1.369631110681555D+00    2.206174447201263D-10
          585    1.374134676422511D+00    1.215245463940645D-09
          586    1.374134772732655D+00    1.740213781942619D-09
          587    1.379687521621681D+00    2.785705685401889D-09
          588    1.379687992086955D+00    1.952472708302612D-09
          589    1.380255642857324D+00    3.170205885632907D-09
          590    1.387340788540885D+00    4.170090811893164D-09
          591    1.387707257040395D+00    5.822264738939865D-12
          592    1.387708216117377D+00    6.328074162638072D-12
          593    1.389993857442104D+00    3.827827607202884D-10
          594    1.389993941681371D+00    4.352172456962728D-10
          595    1.395575470806705D+00    2.954529400223699D-10
          596    1.395575539880008D+00    3.357088636759028D-10
          597    1.406581496093249D+00    6.805021952988564D-11
          598    1.407777907824932D+00    4.500680584949833D-09
          599    1.409760642018153D+00    2.178410459436757D-10
          600    1.411154509316548D+00    2.237946553162959D-09
          601    1.411154669372198D+00    3.224294228980567D-09
          602    1.411270736032780D+00    4.132639070194117D-10
          603    1.419074384224396D+00    1.868338128863862D-10
          604    1.422710047533602D+00    1.789212654540862D-10
          605    1.422953145400748D+00    1.954226286671642D-09
          606    1.422953388755627D+00    3.037322047526845D-09
          607    1.425687982052658D+00    8.031908046544642D-09
          608    1.425688080734071D+00    5.138929744606257D-09
          609    1.436597015808744D+00    2.137670449775922D-09
          610    1.436597147742786D+00    1.390281796259799D-09
          611    1.437628139519290D+00    1.100261250618610D-09
          612    1.437628334035790D+00    6.600288842053676D-10
          613    1.443146261361421D+00    2.626361846786700D-12
          614    1.443146404123660D+00    2.925087806340197D-12
          615    1.453389056799194D+00    2.553399122693560D-09
          616    1.453389383948116D+00    1.674847154691760D-09
          617    1.456475122623770D+00    9.214682298284756D-10
          618    1.456475364893196D+00    1.523379749233913D-09
          619    1.464123984265180D+00    1.605608805619673D-09
          620    1.471727400488721D+00    1.003708076071492D-09
          621    1.472251393429372D+00    6.252872267886459D-10
          622    1.472251561416843D+00    5.077462305831881D-10
          623    1.472545886646215D+00    1.624111457629898D-10
          624    1.476471652235550D+00    1.713097175787738D-10
          625    1.481271337106524D+00    2.904281033003134D-10
          626    1.481271695206720D+00    3.355620673584102D-10
          627    1.484556410890346D+00    2.238453001606931D-10
          628    1.487822802952654D+00    4.573556758313891D-10
          629    1.487823721981635D+00    3.442353743461397D-10
          630    1.492721424900317D+00    9.251567611439543D-10
          631    1.493017471134549D+00    4.285485088613364D-10
          632    1.501199955977059D+00    1.743937229444992D-12
          633    1.501200826394868D+00    2.172359539059771D-12
          634    1.514717066704030D+00    5.889610621880253D-09
          635    1.514717731996755D+00    9.192901078968284D-09
          636    1.516863146329107D+00    1.713826283898132D-09
          637    1.519709596839845D+00    3.053976452061137D-09
          638    1.519709748100122D+00    3.926752026242138D-09
          639    1.519831705395345D+00    6.021249069788739D-09
          640    1.520834130945043D+00    3.930590885037917D-12
          641    1.527635828629508D+00    9.174823543389161D-12
          642    1.538781653977441D+00    1.406324166902099D-09
          643    1.538781840325341D+00    9.446514372115843D-10
          644    1.546941852839928D+00    1.382838053787903D-09
          645    1.547131586380519D+00    3.103881715773245D-10
          646    1.547131797035466D+00    4.013467087516371D-10
          647    1.547189388549007D+00    1.715220391088750D-09
          648    1.547189814954481D+00    1.339126752595352D-09
          649    1.554736514797586D+00    1.401219736657533D-09
          650    1.555786284652037D+00    7.887360420833433D-12
          651    1.555786966117858D+00    6.701227224404569D-12
          652    1.558334458592951D+00    8.014289684228650D-10
          653    1.558334688312442D+00    1.225676130258994D-09
          654    1.558677496310628D+00    2.251300778129702D-10
          655    1.558879052652191D+00    9.317990043153551D-10
          656    1.558879158053752D+00    7.594589251936290D-10
          657    1.573228892898028D+00    3.222206927700705D-12
          658    1.578337577067701D+00    6.612587908125680D-10
          659    1.578337918809998D+00    1.010573459993684D-09
          660    1.582504534996124D+00    4.058655181107383D-10
          661    1.588051085714725D+00    2.032885731261071D-10
          662    1.588051359942757D+00    2.903117904898360D-10
          663    1.589408001948948D+00    1.815187878111002D-09
          664    1.589483603978206D+00    9.174011481831792D-12
          665    1.594745323854169D+00    8.089745753279595D-09
          666    1.604007563517400D+00    1.788582679498857D-10
          667    1.604007763543895D+00    2.057095297954351D-10
          668    1.604627519375529D+00    4.456195699398443D-10
          669    1.604627955701284D+00    4.379760757587971D-10
          670    1.604905746186641D+00    6.950621110316623D-12
          671    1.604905748075139D+00    5.327106134661833D-12
          672    1.612502182371358D+00    3.714502317920162D-11
          673    1.621767892287009D+00    4.701389107890655D-11
          674    1.627176672879916D+00    7.664834637311449D-09
          675    1.629818440606874D+00    8.382553906654893D-12
          676    1.629818796228624D+00    1.026536570715594D-11
          677    1.636701169008324D+00    7.920294674206403D-11
          678    1.636701323228165D+00    1.045472027680676D-10
          679    1.641317223975473D+00    6.341123216236629D-12
          680    1.641317551020054D+00    6.606629666081163D-12
          681    1.641480456011332D+00    2.639201231882919D-10
          682    1.641481273542029D+00    2.835558581336782D-10
          683    1.642067515456180D+00    1.087719897090250D-10
          684    1.647621822476735D+00    2.969220491430616D-10
          685    1.649370797345976D+00    2.813530402964475D-10
          686    1.649370919231058D+00    2.651563344353414D-10
          687    1.652046063678812D+00    8.308489372927237D-10
          688    1.654327129055484D+00    3.050827046350003D-12
          689    1.662222692418401D+00    1.190177166815199D-11
          690    1.664211524082782D+00    8.026606970668020D-12
          691    1.666120162464636D+00    6.048796277104644D-12
          692    1.666120734737363D+00    5.859744394721259D-12
          693    1.669587553806918D+00    6.670059165639359D-11
          694    1.673174200881648D+00    1.584244178256841D-10
          695    1.673174459222537D+00    1.639363252622400D-10
          696    1.675768709538568D+00    1.161355604525005D-11
          697    1.685146916648366D+00    3.378622145387804D-09
          698    1.685147209878624D+00    2.572839413678957D-09
          699    1.691257634119947D+00    1.710250801477983D-09
          700    1.691258043702941D+00    2.301309943366860D-09
          701    1.703277302819160D+00    6.155676207359329D-11
          702    1.703683802425128D+00    1.035499431922170D-09
          703    1.703684053924297D+00    1.280993298950409D-09
          704    1.710851879998248D+00    3.722787549985587D-09
          705    1.710852065514560D+00    2.888390242677464D-09
          706    1.711670928979128D+00    4.972968250824967D-12
          707    1.711670993383260D+00    4.693975707481120D-12
          708    1.720214791158842D+00    5.866827141792852D-12
          709    1.720214825461427D+00    6.212591956816454D-12
          710    1.720599067567548D+00    4.605082781996452D-10
          711    1.729609625740010D+00    1.763479873752331D-10
          712    1.734544479336235D+00    1.303205049297496D-10
          713    1.737135827122039D+00    3.520871182523003D-10
          714    1.737136172428041D+00    2.869657907009924D-10
          715    1.737279438198156D+00    5.931708381354402D-10
          716    1.737481961329851D+00    5.978390336398892D-12
          717    1.738486386006311D+00    1.134575289796018D-09
          718    1.740544254301595D+00    3.647113729012889D-12
          719    1.741156192619668D+00    4.092410708861930D-10
          720    1.741156475193834D+00    5.486812601679970D-10
          721    1.753310812082546D+00    1.133670850620819D-10
          722    1.758974049118290D+00    3.454004841217733D-10
          723    1.763375289311431D+00    6.433072693584816D-12
          724    1.764092083147344D+00    7.965738007003017D-10
          725    1.764801877197936D+00    4.804265759293355D-10
          726    1.766658698878938D+00    3.813166042415094D-09
          727    1.766658830093966D+00    2.904289586320378D-09
          728    1.769495535269564D+00    1.514319257305310D-09
          729    1.769495867131981D+00    1.207221731018591D-09
          730    1.777839425669160D+00    6.656544978161822D-12
          731    1.777839525379783D+00    5.908780869318219D-12
          732    1.778412159151389D+00    9.007967215136170D-12
          733    1.785174786853218D+00    8.539975227279616D-11
          734    1.785175598920196D+00    7.358984652019662D-11
          735    1.785340773130027D+00    5.150753202194555D-12
          736    1.785340850193716D+00    6.594448135865774D-12
          737    1.792973556449111D+00    8.890181641465492D-10
          738    1.793358521114956D+00    6.739051666046488D-10
          739    1.793358574567190D+00    4.553724854488268D-10
          740    1.798254692760496D+00    1.766012283049076D-09
          741    1.800227474955558D+00    6.142087208356394D-12
          742    1.800227788636204D+00    5.008561265469359D-12
          743    1.801120005696202D+00    9.348772573515804D-10
          744    1.801120107926527D+00    1.127677516875906D-09
          745    1.801291950888222D+00    8.189807418935615D-12
          746    1.801291964328833D+00    8.670070874437923D-12
          747    1.802981398769868D+00    4.336337378077708D-12
          748    1.804905098244128D+00    5.303834760181193D-12
          749    1.813817954705950D+00    6.530934947004637D-12
          750    1.814550448022985D+00    1.375752649331028D-11
          751    1.819197404008706D+00    1.398148725316666D-10
          752    1.819197928675502D+00    1.618032570628610D-10
          753    1.822545424549272D+00    1.037354682974116D-10
          754    1.829200387158341D+00    1.512632479105563D-09
          755    1.833662744563085D+00    3.276258274336348D-10
          756    1.835991409860755D+00    2.481079039111279D-10
          757    1.835991519347231D+00    2.286312082434095D-10
          758    1.838130842786901D+00    1.103032325000953D-10
          759    1.839061107061985D+00    1.369617288739685D-10
          760    1.839061483884067D+00    9.743902477369356D-11
          761    1.841671429374844D+00    9.448547508528454D-12
          762    1.849873808848137D+00    7.349227997810908D-12
          763    1.849874275433104D+00    7.792441462253314D-12
          764    1.852781352667438D+00    3.025919341168545D-10
          765    1.852781501126099D+00    2.917028505979427D-10
          766    1.855018619088829D+00    5.582413111915683D-12
          767    1.856218637532427D+00    6.652068338779954D-12
          768    1.856218779859470D+00    6.322148873211776D-12
          769    1.861328188260525D+00    9.820933582007987D-12
          770    1.861328365910462D+00    9.201304197748214D-12
          771    1.862419777094986D+00    3.343483819170573D-11
          772    1.864570208487563D+00    2.055440108374119D-09
          773    1.864570400042781D+00    1.630440617875085D-09
          774    1.866592673128556D+00    2.381532385539470D-11
          775    1.868438500197144D+00    9.106230465338399D-12
          776    1.868438536504699D+00    7.956987464125489D-12
          777    1.869520645299936D+00    1.070660072266425D-11
          778    1.869760914397676D+00    5.725857920303389D-10
          779    1.869761533795438D+00    4.664388227152876D-10
          780    1.870837541094118D+00    4.393686783151574D-12
          781    1.872992890534927D+00    7.622907085341628D-12
          782    1.873048706541120D+00    7.201222912022376D-12
          783    1.873048812917393D+00    1.051385696362746D-11
          784    1.874551233296831D+00    2.541216245715821D-10
          785    1.874551243116965D+00    2.597789322540726D-10
          786    1.876309084251335D+00    1.461834688288672D-10
          787    1.877801397787713D+00    7.040401133703579D-12
          788    1.877801823473123D+00    6.638475315996648D-12
          789    1.878907056387378D+00    8.012260568949922D-12
          790    1.881398458055179D+00    8.255007497807756D-12
          791    1.881398765307755D+00    7.122408820035681D-12
          792    1.888948937398875D+00    2.273872645648531D-10
          793    1.891296012327669D+00    3.568725562983408D-10
          794    1.893316482478467D+00    1.161924796633764D-11
          795    1.893317059445323D+00    8.738176485373168D-12
          796    1.894469085479112D+00    3.210183389095043D-10
          797    1.894469262158119D+00    3.771339576951308D-10
          798    1.895595753178525D+00    1.462706614805981D-11
          799    1.896456182004241D+00    6.452568060606456D-12
          800    1.897493228312499D+00    4.347463428300701D-12
          801    1.902116457562018D+00    1.030651239168350D-11
          802    1.902372722760549D+00    3.264154989283794D-10
          803    1.902372771926242D+00    3.888614936435688D-10
          804    1.904091520715640D+00    1.079755413618386D-11
          805    1.904889148596388D+00    6.333324099424937D-12
          806    1.906151736548173D+00    7.985235406497073D-12
          807    1.906152203617609D+00    7.188887077294202D-12
          808    1.914550949826327D+00    9.250235253668201D-12
          809    1.916959685703108D+00    6.738119570777763D-12
          810    1.916959847248414D+00    7.032149780872261D-12
          811    1.917481366423415D+00    4.543094460208254D-10
          812    1.919393578548141D+00    5.957571220129251D-12
          813    1.919393648870659D+00    5.606296307016552D-12
          814    1.919876642306872D+00    6.896404035546350D-12
          815    1.919876862957824D+00    8.887491686655925D-12
          816    1.919915003475324D+00    2.816302019138272D-10
          817    1.920202286632164D+00    3.847017012021435D-10
          818    1.920202664179395D+00    4.541378197842173D-10
          819    1.921908928784537D+00    3.224811677033191D-10
          820    1.921908958998030D+00    4.279036664326180D-10
          821    1.932829782206599D+00    2.390557261943974D-09
          822    1.932829959377023D+00    3.035566108343328D-09
          823    1.935612807555413D+00    8.608055971719269D-12
          824    1.936471589420767D+00    5.955388024755146D-12
          825    1.936471683291622D+00    6.769944938756297D-12
          826    1.937976932449241D+00    4.139641610524932D-10
          827    1.937977394512679D+00    5.559707554857539D-10
          828    1.942520525560504D+00    4.107330311651270D-12
          829    1.946336154730652D+00    2.255541177770935D-10
          830    1.947784253282302D+00    1.997611324045271D-11
          831    1.947784367834800D+00    1.725686110176499D-11
          832    1.951628398652704D+00    1.552618835512115D-09
          833    1.951628964568181D+00    1.161090461876770D-09
          834    1.957468490877668D+00    1.215673918370936D-10
          835    1.962511057285381D+00    8.494091165090567D-12
          836    1.962511080836448D+00    8.041549421417448D-12
          837    1.982223278177701D+00    3.391697531776066D-10
          838    1.986203312822674D+00    2.679205618659566D-10
          839    1.986203406296013D+00    2.703414061395880D-10
          840    1.988843425390526D+00    9.527641695459218D-12
          841    1.995548653299068D+00    3.488191773740844D-10
          842    1.998862287474357D+00    6.130399664206214D-10
          843    2.000591573341028D+00    5.159281388999501D-10
          844    2.000591887601446D+00    7.829197278219659D-10
          845    2.004134630943195D+00    1.122557297571881D-11
          846    2.004135108333611D+00    8.468499502860541D-12
          847    2.004306259391127D+00    1.743165288066787D-10
          848    2.007167823846823D+00    6.794802391120369D-12
          849    2.007167839902881D+00    8.766611804998686D-12
          850    2.009843535541310D+00    7.853896277370333D-10
          851    2.018959073590930D+00    1.069898440776391D-09
          852    2.018959441637021D+00    6.653780057523114D-10
          853    2.021687560432575D+00    8.487812619372109D-10
          854    2.022305493175302D+00    5.379965260366515D-10
          855    2.022305757784152D+00    4.163967369569457D-10
          856    2.030923952371467D+00    3.465140546753697D-10
          857    2.033919320647812D+00    3.928763558940020D-10
          858    2.033919833875542D+00    2.322526142005486D-10
          859    2.035763502881431D+00    1.070350138218371D-11
          860    2.035764289222495D+00    1.284065106707407D-11
          861    2.036944556910346D+00    6.556899517481433D-10
          862    2.036945158259235D+00    4.744550539058044D-10
          863    2.039176491329379D+00    2.604915320116235D-10
          864    2.039176550477703D+00    2.797434676969503D-10
          865    2.041509400597466D+00    7.961009299225709D-12
          866    2.041509430288384D+00    7.264719153520313D-12
          867    2.049425621398439D+00    1.039154912135890D-11
          868    2.049425790866939D+00    8.528867107153672D-12
          869    2.049627538044708D+00    3.257732527840258D-09
          870    2.050383928308801D+00    2.589662641256803D-10
          871    2.050384013611322D+00    3.367865189604551D-10
          872    2.057061699528202D+00    2.098893323786324D-10
          873    2.057061900065871D+00    2.203093517495691D-10
          874    2.059012360984222D+00    1.258016513064236D-11
          875    2.059013651375609D+00    1.171447806444176D-11
          876    2.062651422146466D+00    9.884684404725626D-10
          877    2.062651720794361D+00    6.577860998640223D-10
          878    2.064347215893723D+00    7.341569268648587D-12
          879    2.064347323460137D+00    6.837080836488832D-12
          880    2.065885902713919D+00    1.185117862297030D-11
          881    2.066218251557316D+00    6.514729645340107D-12
          882    2.066219034980412D+00    6.360051924824345D-12
          883    2.067431646754133D+00    7.460995092104697D-12
          884    2.069579652325156D+00    6.072456638373847D-10
          885    2.069580127125793D+00    8.774128335326046D-10
          886    2.070252326397137D+00    2.131475016550498D-10
          887    2.070674858744026D+00    9.455317935979324D-10
          888    2.073415191183584D+00    8.583961428122335D-12
          889    2.073415213511056D+00    8.565151851445418D-12
          890    2.073896208643815D+00    1.866307685232158D-10
          891    2.079839949596434D+00    2.505604375966461D-10
          892    2.079840262253650D+00    2.703460765443573D-10
          893    2.081031430372337D+00    6.042834176856665D-12
          894    2.081031614736836D+00    7.102406835822404D-12
          895    2.082778894093942D+00    1.050367305049702D-11
          896    2.085477344704258D+00    6.859919899277775D-12
          897    2.089873672917198D+00    4.250360508572057D-12
          898    2.090499538217787D+00    8.372605074076201D-12
          899    2.094874947148972D+00    6.087788613193198D-12
          900    2.096551869399244D+00    5.717930679719447D-10
          901    2.096552117504120D+00    8.114079210500061D-10
          902    2.097914773515468D+00    3.824574125626008D-10
          903    2.097915108288718D+00    2.800970719945074D-10
          904    2.101260975001741D+00    2.249419522167896D-11
          905    2.101261423016243D+00    1.499377542913860D-11
          906    2.102843239640165D+00    5.284726909864366D-10
          907    2.107752769699760D+00    2.441428543105176D-11
          908    2.107753218913789D+00    1.614874723140252D-11
          909    2.108801064572631D+00    5.267884403777724D-12
          910    2.108801790230020D+00    4.839273820399590D-12
          911    2.110650656599972D+00    3.108037519903811D-11
          912    2.117296524606896D+00    2.514640655454884D-12
          913    2.119159415247492D+00    1.234455654844606D-11
          914    2.119795034576637D+00    2.316407153018325D-11
          915    2.119795205359760D+00    3.397690724755898D-11
          916    2.124281488034921D+00    1.902786251154552D-10
          917    2.127409277259270D+00    8.117960291766262D-12
          918    2.127409630811965D+00    7.704324084078995D-12
          919    2.128852547725082D+00    2.768180197112578D-10
          920    2.128912229188287D+00    6.723273692539396D-10
          921    2.128912334362619D+00    4.525856841366917D-10
          922    2.134064463628472D+00    1.972008422682876D-11
          923    2.134064575309184D+00    2.801793613794372D-11
          924    2.135922867370267D+00    3.808502563259914D-10
          925    2.136011946313300D+00    1.589907573497417D-10
          926    2.137635909385046D+00    6.276434170438990D-12
          927    2.138604571220198D+00    6.963982958935177D-10
          928    2.138604573754080D+00    4.339024048595177D-10
          929    2.138746274832316D+00    3.751649649165783D-12
          930    2.141099458876647D+00    1.028404112222658D-11
          931    2.141099812991571D+00    1.318531375195292D-11
          932    2.142231291633457D+00    3.228179457979766D-10
          933    2.143270672700142D+00    2.849931187767228D-11
          934    2.144389549595181D+00    4.563138377714986D-10
          935    2.144389736761525D+00    6.093020630315635D-10
          936    2.145519836682239D+00    9.241262990813137D-12
          937    2.145520386960180D+00    8.058933141496466D-12
          938    2.146894625767163D+00    4.095672606439628D-10
          939    2.147099700392058D+00    2.390001199201738D-10
          940    2.148437427676726D+00    5.040214624471541D-11
          941    2.152071295032922D+00    5.933340194081156D-12
          942    2.152071738332415D+00    6.311778100508130D-12
          943    2.156917426994257D+00    4.320290696709868D-11
          944    2.156917433082424D+00    3.262730693879905D-11
          945    2.157005622773300D+00    7.355216782809411D-12
          946    2.159387680397135D+00    5.036801688070074D-10
          947    2.163329244511113D+00    3.587814254999587D-10
          948    2.163329757291087D+00    5.376855494897652D-10
          949    2.165260719674632D+00    1.366755189731959D-11
          950    2.171911833417032D+00    7.732901173048204D-10
          951    2.171912021276149D+00    1.100619543975727D-09
          952    2.173021555085820D+00    3.488133088116116D-10
          953    2.173022113670488D+00    4.841920472478752D-10
          954    2.173634972391544D+00    2.328598668531650D-11
          955    2.176769942437663D+00    5.870113204960513D-10
          956    2.184554679341709D+00    8.840769516174914D-12
          957    2.184554869371974D+00    1.082685589335931D-11
          958    2.186695050619024D+00    1.876622166232254D-10
          959    2.189233875035594D+00    1.271875162778298D-09
          960    2.189234725903605D+00    8.606953515085575D-10
          961    2.199188533736886D+00    4.281682076106370D-10
          962    2.202369426584275D+00    5.615021860578230D-10
          963    2.202369440503839D+00    3.881280000343234D-10
          964    2.209637525941713D+00    4.138373173520726D-10
          965    2.209637606647501D+00    3.071610507557762D-10
          966    2.210283071726406D+00    3.471698107788618D-11
          967    2.210283383470587D+00    3.876070968991621D-11
          968    2.211107330767039D+00    1.344380039394244D-09
          969    2.211107855659209D+00    2.032551325326146D-09
          970    2.212731409464529D+00    1.232710498767540D-09
          971    2.212731837820467D+00    8.208326617370762D-10
          972    2.213310874559259D+00    3.080560522404775D-11
          973    2.214903435512801D+00    3.354306962535983D-10
          974    2.221281622809597D+00    7.208485221253788D-12
          975    2.221726724638958D+00    3.202458615076204D-11
          976    2.224228352232993D+00    8.390433034936179D-12
          977    2.224228450683583D+00    9.670149248311268D-12
          978    2.224363346237438D+00    7.279598941666930D-12
          979    2.226208057791329D+00    2.532311156325896D-10
          980    2.226208442043977D+00    2.634696162941788D-10
          981    2.234451317559750D+00    5.447094980358452D-10
          982    2.234451444945913D+00    5.822086729629609D-10
          983    2.234482199691705D+00    4.114798483640870D-10
          984    2.234482883025820D+00    3.173188916730836D-10
          985    2.237758664832762D+00    1.998377545152260D-10
          986    2.240336971611138D+00    4.557818610792465D-10
          987    2.242022519667040D+00    1.240348091924794D-09
          988    2.245106117289512D+00    9.032251319851143D-12
          989    2.248255119309907D+00    1.765826880857367D-10
          990    2.248256218974408D+00    1.348843016938436D-10
          991    2.249137789199968D+00    5.441882465056676D-12
          992    2.249138039480813D+00    5.476691506659795D-12
          993    2.249555031745491D+00    9.657477348168428D-12
          994    2.249556080291422D+00    1.321254276436282D-11
          995    2.251298198143407D+00    3.185577078154820D-10
          996    2.251298557506305D+00    3.093873781526411D-10
          997    2.252859555530576D+00    6.308375853334220D-12
          998    2.252859822448281D+00    5.989248948296882D-12
          999    2.255342260693095D+00    2.593852160170449D-10
         1000    2.258463673658103D+00    2.630318731863552D-10
         1001    2.258464248938201D+00    2.325372626156917D-10
         1002    2.264064043301588D+00    1.534705717230810D-11
         1003    2.264064193981707D+00    1.400491936033311D-11
         1004    2.268314496863770D+00    7.785764761718688D-12
         1005    2.268314876520463D+00    5.771226609491710D-12
         1006    2.269321392224579D+00    8.628547268241764D-12
         1007    2.270384043647903D+00    1.780796646547423D-11
         1008    2.270683488979423D+00    1.487991531730924D-09
         1009    2.272931325293301D+00    1.562686163737065D-10
         1010    2.272931561707732D+00    1.050983731725589D-10
         1011    2.273203353849975D+00    1.372166591776611D-10
         1012    2.281371690290275D+00    7.151097751713263D-10
         1013    2.281372141064585D+00    1.118806877346627D-09
         1014    2.285765916018712D+00    1.680973427399186D-11
         1015    2.289429925247535D+00    3.661829641563622D-11
         1016    2.289480528552664D+00    7.944529871436190D-12
         1017    2.289480609955539D+00    7.986724747324729D-12
         1018    2.289933754774645D+00    1.811611601457238D-09
         1019    2.289933785477232D+00    1.204902498226192D-09
         1020    2.290010932217128D+00    3.221964135971540D-10
         1021    2.290011055425905D+00    2.876976357044420D-10
         1022    2.290045304685506D+00    5.370125798835483D-11
         1023    2.290045474759771D+00    6.946337392364811D-11
         1024    2.294600433861418D+00    6.797400952069792D-12
         1025    2.294600624573607D+00    7.009538512221290D-12
         1026    2.300123029139632D+00    8.720016609042942D-12
         1027    2.300726305343378D+00    2.033384488542823D-09
         1028    2.300874248007807D+00    1.336710891425827D-11
         1029    2.304466344794989D+00    3.862874307943597D-10
         1030    2.306889042099706D+00    6.177977470858030D-12
         1031    2.306889418344097D+00    6.957100169888514D-12
         1032    2.310643664955798D+00    7.023577719663642D-12
         1033    2.316627417264635D+00    3.580301999288893D-10
         1034    2.316627637383327D+00    3.019286902189903D-10
         1035    2.319010038345457D+00    2.058348362526182D-10
         1036    2.322366014526681D+00    8.471143776310837D-12
         1037    2.322392326139360D+00    4.190373450548876D-10
         1038    2.322392880389903D+00    6.559982121962692D-10
         1039    2.324287299566191D+00    3.583627542360403D-12
         1040    2.325234537061905D+00    9.827548727847498D-10
         1041    2.325234798904436D+00    1.513337403801762D-09
         1042    2.329316612527587D+00    3.483136450039488D-10
         1043    2.329316937992949D+00    2.744085931700613D-10
         1044    2.332582565490717D+00    6.675201290264673D-10
         1045    2.332582938895798D+00    4.408219791023661D-10
         1046    2.336878139781563D+00    2.204973600690163D-10
         1047    2.337089527929605D+00    5.281633498539756D-12
         1048    2.337089592322908D+00    4.900331795583141D-12
         1049    2.341527163412243D+00    1.776328698116348D-10
         1050    2.342270429714998D+00    4.571629908948590D-10
         1051    2.342270451548373D+00    6.537381029402163D-10
         1052    2.342584211694149D+00    5.311145370211352D-12
         1053    2.344215492759017D+00    1.366290370121301D-11
         1054    2.344215493446763D+00    1.605601906293941D-11
         1055    2.344838672073081D+00    2.400736310638914D-11
         1056    2.348728242639615D+00    3.076464037678699D-11
         1057    2.348728963885494D+00    2.539999550578781D-11
         1058    2.355787413439991D+00    6.385896620383660D-12
         1059    2.360659321355613D+00    3.870229658600406D-10
         1060    2.360659483255799D+00    4.262493035395093D-10
         1061    2.362189298022808D+00    1.261044881579731D-10
         1062    2.362308775358685D+00    2.717739108715357D-10
         1063    2.364289743458026D+00    2.205016930042260D-09
         1064    2.367044352119953D+00    4.774532139291379D-10
         1065    2.367601192880312D+00    1.943867310989142D-10
         1066    2.367953388805132D+00    1.900421131496114D-10
         1067    2.367953756688823D+00    2.200396289620837D-10
         1068    2.378843170712464D+00    1.416904919505138D-10
         1069    2.378910345584164D+00    3.040124097421873D-10
         1070    2.378910612012819D+00    2.825718140917818D-10
         1071    2.383204981668004D+00    6.511968351833152D-11
         1072    2.383205407467181D+00    7.751054717626432D-11
         1073    2.386024505165161D+00    8.277300547066267D-12
         1074    2.386024730598735D+00    7.197685197645528D-12
         1075    2.386709640723478D+00    2.975170837190396D-10
         1076    2.387551995607052D+00    1.837271868297434D-09
         1077    2.389116227703024D+00    8.449248823010005D-10
         1078    2.389116483246656D+00    1.134544551917215D-09
         1079    2.392907731934130D+00    7.518010302252446D-10
         1080    2.393498766907848D+00    1.176452637939846D-11
         1081    2.393499270714801D+00    9.017078346533000D-12
         1082    2.395014605493099D+00    1.725160242096693D-10
         1083    2.400625031456498D+00    7.795757485154446D-10
         1084    2.401896809220384D+00    6.937259851502985D-11
         1085    2.401898282574964D+00    4.481453828147381D-11
         1086    2.404490705897512D+00    1.984002476125200D-10
         1087    2.404490821932908D+00    1.837911105923214D-10
         1088    2.405873311431083D+00    6.952616616615050D-12
         1089    2.407190810273266D+00    4.653864876316181D-10
         1090    2.407190975479366D+00    5.683206150557961D-10
         1091    2.412265782864965D+00    1.336682787070353D-10
         1092    2.413074444739091D+00    9.259271722326789D-12
         1093    2.413560486196150D+00    5.247332527316719D-12
         1094    2.414896875917297D+00    5.767014008903157D-10
         1095    2.417349314559174D+00    3.417388199976862D-10
         1096    2.417349510298806D+00    3.675119885625103D-10
         1097    2.418456300703192D+00    1.151804190845278D-11
         1098    2.424496995257281D+00    1.308913360657830D-09
         1099    2.424497104633812D+00    1.851365594602292D-09
         1100    2.427968315366617D+00    5.750587407968554D-12
         1101    2.427969081539651D+00    5.633798825908554D-12
         1102    2.430502648992647D+00    1.392189724305084D-11
         1103    2.431390399917811D+00    4.798158212616373D-10
         1104    2.431744946670968D+00    1.724562501045788D-11
         1105    2.431746483915413D+00    2.224488148743544D-11
         1106    2.432041967216555D+00    9.281113893050410D-10
         1107    2.436497753020695D+00    1.657540357650312D-10
         1108    2.438950758532585D+00    5.397753644634258D-10
         1109    2.438951453373324D+00    7.484361677882791D-10
         1110    2.439165354701911D+00    4.728823717443651D-10
         1111    2.439165537354619D+00    5.500374473269931D-10
         1112    2.440451233151775D+00    3.805117622702272D-10
         1113    2.443147479948625D+00    2.385341834997792D-10
         1114    2.447571726404605D+00    2.956718450626431D-10
         1115    2.448059192423669D+00    6.947902582320928D-12
         1116    2.448060142233103D+00    9.362895350022734D-12
         1117    2.451218411127847D+00    2.757207654837010D-12
         1118    2.454168034083749D+00    5.958455276505317D-12
         1119    2.454168036619400D+00    6.493207973609649D-12
         1120    2.457705701567442D+00    6.698742649545124D-12
         1121    2.458704519453240D+00    5.861496078408725D-11
         1122    2.458705313244550D+00    4.643991812350594D-11
         1123    2.461263029963020D+00    3.768801028758285D-10
         1124    2.461263912941675D+00    4.918142189507235D-10
         1125    2.462596070572240D+00    5.456584644838826D-12
         1126    2.462596108220848D+00    6.829433419533462D-12
         1127    2.463019147651977D+00    1.639543410092877D-10
         1128    2.468281651712654D+00    3.716595805301190D-10
         1129    2.468282341865260D+00    3.928375828402943D-10
         1130    2.474816695618484D+00    9.450597020833617D-12
         1131    2.474817378397609D+00    9.713925352319820D-12
         1132    2.475988634153651D+00    2.744864931269524D-10
         1133    2.475988848148859D+00    3.083811759679370D-10
         1134    2.477579772594105D+00    9.116079285874385D-12
         1135    2.477579860538401D+00    8.545331708306881D-12
         1136    2.479418956661110D+00    1.124704137664990D-09
         1137    2.479419388191526D+00    8.300957106500880D-10
         1138    2.484357162471658D+00    3.276478211162719D-10
         1139    2.486760152078970D+00    7.388622401708009D-12
         1140    2.489630601733755D+00    1.960672584804754D-11
         1141    2.498411326102751D+00    1.752580404530340D-10
         1142    2.499295437428449D+00    8.998709804832810D-10
         1143    2.499296484094923D+00    6.993914205584271D-10
         1144    2.500570213465644D+00    3.546085224196276D-10
[...]
         2496    1.407407497020555D+01    5.532584225409479D-10
         2497    1.407410022364409D+01    5.832010950674522D-10
         2498    1.407410107667599D+01    5.474664579524869D-10
         2499    1.407414396969562D+01    6.773340690733782D-10
         2500    1.410545562585075D+01    2.886299081938716D-10
         2501    1.410558153345245D+01    2.987683210341874D-10
         2502    1.410558187495425D+01    2.897561899887292D-10
         2503    1.410583653070870D+01    3.249452597593988D-10
         2504    1.410583687115950D+01    3.196775926013511D-10
         2505    1.410600370742433D+01    2.105170731543517D-10
         2506    1.411100205066639D+01    4.445237676263894D-10
         2507    1.411121789084773D+01    4.640671131730982D-10
         2508    1.411121858164252D+01    4.111765035870468D-10
         2509    1.411159998610770D+01    5.799552173762644D-10
         2510    1.411160069082877D+01    5.138852536241715D-10
         2511    1.411179429571426D+01    6.156531216999717D-10
         2512    1.424982042422331D+01    1.277116271569490D-09
         2513    1.425026845734211D+01    9.163206369468394D-10
         2514    1.425026881107973D+01    1.068201486365947D-09
         2515    1.425117616072464D+01    1.039307046029760D-09
         2516    1.425117650894901D+01    8.123466838136959D-10
         2517    1.425161529487800D+01    9.846275724736312D-10
         2518    1.429445999283234D+01    3.195137253986426D-10
         2519    1.429446047611600D+01    2.908187196350730D-10
         2520    1.429446852941350D+01    1.826080122511123D-10
         2521    1.429451456308822D+01    3.025698865968582D-10
         2522    1.429451489670515D+01    2.423031052985810D-10
         2523    1.429456757431759D+01    1.962316074677615D-10
         2524    1.429929764916234D+01    1.045957100682478D-09
         2525    1.429961461397243D+01    8.027703015270929D-10
         2526    1.429961513576249D+01    9.636289579464574D-10
         2527    1.430013322272538D+01    5.127569793990046D-10
         2528    1.430013387825495D+01    9.287300871082642D-10
         2529    1.430035306433072D+01    1.011556755028834D-09
         2530    1.434963753074452D+01    2.429243151279115D-10
         2531    1.434989962378829D+01    2.931491547332988D-10
         2532    1.434989997901876D+01    3.882030499673929D-10
         2533    1.435040180034572D+01    2.899255356625134D-10
         2534    1.435040213922358D+01    3.264140984388467D-10
         2535    1.435068891299353D+01    2.806838963992188D-10
         2536    1.438553287982524D+01    4.080169072648259D-10
         2537    1.438600291716878D+01    4.624802401877157D-10
         2538    1.438600329620437D+01    2.709201681059409D-10
         2539    1.438692580746892D+01    3.562138361082657D-10
         2540    1.438692617143607D+01    3.532758710439032D-10
         2541    1.438736782491214D+01    8.192856252297504D-10
         2542    1.442735205806340D+01    2.120867827624519D-10
         2543    1.442746529943372D+01    3.477499426218834D-10
         2544    1.442746537156934D+01    3.061411213164341D-10
         2545    1.442771649565696D+01    3.201025885247491D-10
         2546    1.442771658316772D+01    2.997023882914638D-10
         2547    1.442788465937930D+01    1.947703526930479D-10
         2548    1.445110041486741D+01    4.104354993521542D-10
         2549    1.445134755719262D+01    4.791013384099851D-10
         2550    1.445134808882747D+01    5.395372810080989D-10
         2551    1.445177448526179D+01    4.250079511215824D-10
         2552    1.445177499525945D+01    4.308322775273162D-10
         2553    1.445200924077395D+01    5.724756299793841D-10
         2554    1.457743349519111D+01    4.852639695694264D-10
         2555    1.457765512987164D+01    4.287152726078314D-10
         2556    1.457765542741654D+01    5.862850709459236D-10
         2557    1.457810384289876D+01    3.178069819050632D-10
         2558    1.457810413896333D+01    4.272578683735245D-10
         2559    1.457836416871381D+01    4.871506928926936D-10
         2560    1.464972151519509D+01    2.935039752922049D-10
         2561    1.465003749677199D+01    3.228628834420424D-10
         2562    1.465003807125613D+01    3.308510522251187D-10
         2563    1.465059921776777D+01    3.076434544803421D-10
         2564    1.465059979310575D+01    2.855785343033883D-10
         2565    1.465090406910335D+01    1.965223500675801D-10
         2566    1.472173964918259D+01    1.491574676488761D-09
         2567    1.472231724863168D+01    1.732038138178926D-09
         2568    1.472231799788225D+01    1.253912976907204D-09
         2569    1.472349253389705D+01    1.153410481501955D-09
         2570    1.472349328253216D+01    8.074288408089095D-10
         2571    1.472404330486023D+01    1.411270152313607D-09
         2572    1.480355202988937D+01    9.433524425438863D-11
         2573    1.480412207436743D+01    8.147184400747065D-11
         2574    1.480412285325754D+01    1.298403395065929D-10
         2575    1.480527770490429D+01    9.341017144309307D-11
         2576    1.480527848300222D+01    1.046238685821447D-10
         2577    1.480580967404721D+01    1.040123395972640D-10
         2578    1.515659268884189D+01    8.901252299575408D-10
         2579    1.515718381971391D+01    5.553110697089810D-10
         2580    1.515718473285390D+01    5.182150817029356D-10
         2581    1.515839260325237D+01    4.873373194212763D-10
         2582    1.515839351553121D+01    3.278877016175739D-10
         2583    1.515895595189861D+01    5.024501381167025D-10
         2584    2.232521251467167D+01    4.843305384267451D-12
         2585    2.232521273934853D+01    4.788164942817623D-12
         2586    2.245349386386517D+01    3.544701852691458D-10
         2587    2.245349410989562D+01    3.317575059081433D-10
         2588    2.245449689493114D+01    5.535302764763576D-12
         2589    2.252172824012156D+01    9.450781793607907D-11
         2590    2.254859755175762D+01    4.001075937198544D-10
         2591    2.254859854025084D+01    4.822816305794222D-10
         2592    2.264873117845576D+01    5.239225656204174D-10
         2593    2.266566041158266D+01    6.766273368220098D-10
         2594    2.276971133056032D+01    5.243230993451745D-10
         2595    2.276971190483571D+01    7.427764734701580D-10
         2596    2.290026566597770D+01    5.140451558157872D-12
         2597    2.290026740219433D+01    5.475993394527807D-12
         2598    2.292798559150482D+01    7.592865847468985D-10
         2599    2.292798640345039D+01    8.265856947699054D-10
         2600    2.293379702135935D+01    5.846582286345075D-12
         2601    2.299667869603901D+01    4.281919838431248D-12
         2602    2.303359376412286D+01    6.664822430863881D-10
         2603    2.305246446437122D+01    4.624299910417729D-12
         2604    2.305246508923654D+01    4.934129377753151D-12
         2605    2.306433768609725D+01    7.301194398739469D-10
         2606    2.307649235584331D+01    4.935695904935742D-10
         2607    2.307649289367628D+01    6.132561879354093D-10
         2608    2.308785955458476D+01    7.911241085659971D-11
         2609    2.310332100529207D+01    1.618201270498795D-10
         2610    2.313389111035346D+01    1.091890365519864D-09
         2611    2.313389177775729D+01    1.232726993881561D-09
         2612    2.314598417063928D+01    1.490773288914789D-09
         2613    2.315417700309196D+01    4.043431897643823D-10
         2614    2.316022257652140D+01    7.264458694820622D-10
         2615    2.316022340280056D+01    8.823625865257888D-10
         2616    2.321899723961097D+01    2.411057978220970D-09
         2617    2.321899761559812D+01    2.063865496896314D-09
         2618    2.325318594114884D+01    4.373671054787537D-12
         2619    2.326372412029603D+01    6.206364879463701D-12
         2620    2.326372429200509D+01    5.478400272233624D-12
         2621    2.328146756941092D+01    9.867969575250922D-10
         2622    2.328146878711125D+01    7.348209190102779D-10
         2623    2.329185768855234D+01    4.128698091451379D-12
         2624    2.329185799587432D+01    4.987853778758205D-12
         2625    2.332119296044949D+01    3.864685923318090D-10
         2626    2.336454566667999D+01    1.043923095906658D-09
         2627    2.336454592061627D+01    9.089256358037003D-10
         2628    2.337174994574670D+01    1.544597159061293D-09
         2629    2.339659529709177D+01    1.055915222802296D-09
         2630    2.339659555097365D+01    1.194237413449922D-09
         2631    2.340064336270927D+01    1.789083975417919D-09
         2632    2.340975111943712D+01    1.053393505822720D-09
         2633    2.345516077889052D+01    1.515113525391966D-10
         2634    2.345547857286207D+01    1.099003161894496D-09
         2635    2.345547926559026D+01    9.886252028203617D-10
         2636    2.346794103796332D+01    6.952070882109531D-12
         2637    2.346794325371864D+01    4.825551111387888D-12
         2638    2.349529630026743D+01    2.067476230099519D-09
         2639    2.349529664312909D+01    2.425841318218912D-09
         2640    2.351102804634631D+01    3.155146850080315D-09
         2641    2.351728420366101D+01    1.963741897943262D-10
         2642    2.355488337715591D+01    3.768702816742729D-09
         2643    2.355488428016744D+01    2.712385493541599D-09
         2644    2.357546280629988D+01    2.311575581754833D-10
         2645    2.357633765229641D+01    7.462336725310180D-10
         2646    2.357877847058079D+01    1.933626070847102D-09
         2647    2.357877913110342D+01    1.998268634708829D-09
         2648    2.357991906688412D+01    3.269427310869988D-09
         2649    2.357991983230249D+01    2.819765215279936D-09
         2650    2.363338525140082D+01    3.650022359984071D-09
         2651    2.363338527006281D+01    3.087194403674489D-09
         2652    2.369360034718298D+01    6.413573779217826D-10
         2653    2.369398049182749D+01    3.696138771181642D-09
         2654    2.369398166302229D+01    3.150385815655950D-09
         2655    2.370442730512585D+01    1.192668577591610D-09
         2656    2.370442764844205D+01    1.187780099557578D-09
         2657    2.371236894058362D+01    5.213540312973479D-09
         2658    2.371236911840090D+01    4.446591004672089D-09
         2659    2.372338345944474D+01    6.015887537427902D-09
         2660    2.378691947987230D+01    5.248088994584976D-09
         2661    2.379936838343167D+01    8.649983303906243D-10
         2662    2.381704447258892D+01    5.751715670210706D-09
         2663    2.382147578714238D+01    3.167113048503177D-09
         2664    2.386573859399958D+01    4.601221940609959D-09
         2665    2.386573893614138D+01    3.536630488940277D-09
         2666    2.393120106884407D+01    6.855151291347504D-10
         2667    2.396853862809757D+01    3.731781075007884D-09
         2668    2.396853959811057D+01    2.894918822286995D-09
         2669    2.398201436625066D+01    3.572202434779466D-09
         2670    2.398201443241109D+01    4.427628256969349D-09
         2671    2.412840573150044D+01    5.115822910587195D-09
         2672    2.412840590107161D+01    3.787095017283730D-09
         2673    2.421112204574588D+01    4.572848300997806D-09
         2674    3.243549504046188D+01    2.647024463268271D-09
         2675    3.243572997638992D+01    3.044909111144901D-09
         2676    3.243573001176513D+01    1.761891457601233D-09
         2677    3.243620691517095D+01    2.582339477925424D-09
         2678    3.243620695231739D+01    2.114671018857666D-09
         2679    3.243643372479492D+01    2.453392556002427D-09
         2680    3.350232635758940D+01    1.274428586030454D-09
         2681    3.350265227859011D+01    1.284567990010841D-09
         2682    3.350265243927415D+01    1.029260321145679D-09
         2683    3.350331847350760D+01    1.236195244163520D-09
         2684    3.350331863260247D+01    1.000450896060900D-09
         2685    3.350363308631069D+01    1.319372124149617D-09
         2686    3.383997035544821D+01    5.233492733350082D-10
         2687    3.384024097459213D+01    1.021793852545000D-09
         2688    3.384024113779039D+01    9.025505788727920D-10
         2689    3.384074896235845D+01    9.405110165338143D-10
         2690    3.384074911843461D+01    8.668013362918332D-10
         2691    3.384103612475649D+01    6.098069204200351D-10
         2692    3.400325632689399D+01    1.362481253935211D-09
         2693    3.400327899630209D+01    1.002236439759862D-09
         2694    3.400328002774192D+01    1.104536136748305D-09
         2695    3.400335489433842D+01    1.162841023723022D-09
         2696    3.400335591370338D+01    1.173806700261659D-09
         2697    3.400339274565371D+01    1.393748621337888D-09
         2698    3.414139012654320D+01    3.798803006820419D-10
         2699    3.414166382292856D+01    6.922289084743074D-10
         2700    3.414166415791701D+01    6.395716619736705D-10
         2701    3.414217262413705D+01    5.494388345944698D-10
         2702    3.414217296138924D+01    6.353503290623886D-10
         2703    3.414245805434224D+01    4.078494468435558D-10
         2704    3.431676909974635D+01    1.547705107995325D-09
         2705    3.431730123583387D+01    1.010471798602261D-09
         2706    3.431730152939665D+01    1.051532996545000D-09
         2707    3.431837178716909D+01    9.777830986827596D-10
         2708    3.431837207596030D+01    1.065440802129933D-09
         2709    3.431888302885813D+01    1.247934806917805D-09
 

 <geterg> : there is no data group $energy 


 Warning! Ground state energy set to zero.




                    Selection rules for point group c1  


 Subduction with respect to c1  :

    Polar vector representation: a                           

    Axial vector representation: a                           

    Symmetric second rank tensor representation: a                           




                            Ground state


 Total energy:                            0.000000000000000    

 Charge:

               elec          nuc         total

           -42.000000    42.000000    -0.000000


 Electric dipole moment:

               elec          nuc         total   

    x        0.000000    -0.000000     0.000000    Norm:              0.000000
    y        0.000000    -0.000000     0.000000
    z       -0.000000     0.000000    -0.000000    Norm / debye:      0.000000


 Electric quadrupole moment:

               elec          nuc         total   

   xx     -213.942214   190.231797   -23.710417
   yy     -213.942183   190.231908   -23.710275    1/3*trace:       -25.960116
   zz      -30.459655     0.000000   -30.459655
   xy        0.000000    -0.000000    -0.000000
   xz       -0.000002     0.000002    -0.000000    Anisotropy:        6.749309
   yz       -0.000000     0.000000    -0.000000



 gw: Initialization, memory allocation

 ==== gw reading < control > ==========================================
 number of gw orbitals   =    1
 ==== gw end read < control > =========================================
 
 GW version        60813
 paremeters:
 -------------------------------------------
 number of levels to calculate           26
 number of excitations                 2709
 number of spin channels                  1
 type of gw 0:G0W0 1: GW0                 0
 number of qpe iterations 0->lpqpe        0
 rpa response function                    T
 limit Z to 0.5 - 1.0                     F
 nmo                                    150
 nfungw                                -999
 eta (Hartree)                      0.00100
 calculate for a series of etas           F
 extrapolate to eta = 0                   F
 qpe mixing parameter               0.60000
 amount of debugging info                10
 -------------------------------------------
 
 gw: Calculation of sigmax
 gw: Getting the xc energies
 gw: vxc CAO ->MO,selection of diagonal elements
 gw: Calculation of sigmac and dsigmac
 gw:  Loop over blocks of vectors (passes)

 Pass:    1
 Number of CAO vectors:         1320
 gw: Transformation MO-CAO
 gw:  G(nu,mu)=(nu,mu|kappa,lamda)*(X+Y)(Kappa,lambda)
 gw: Transformation CAO-MO-CAO, G(nu,mu)->G(p,q)
 gw:  Here comes (pq|ia)(X+Y)_{ia}

 Pass:    2
 Number of CAO vectors:         1320
 gw: Transformation MO-CAO
 gw:  G(nu,mu)=(nu,mu|kappa,lamda)*(X+Y)(Kappa,lambda)
 gw: Transformation CAO-MO-CAO, G(nu,mu)->G(p,q)
 gw:  Here comes (pq|ia)(X+Y)_{ia}

 Pass:    3
 Number of CAO vectors:           69
 gw: Transformation MO-CAO
 gw:  G(nu,mu)=(nu,mu|kappa,lamda)*(X+Y)(Kappa,lambda)
 gw: Transformation CAO-MO-CAO, G(nu,mu)->G(p,q)
 gw:  Here comes (pq|ia)(X+Y)_{ia}
 ------------------------------------------------------------------------------------
 GW version:        60813
 orb       eps    QP-eps     Sigma   Sigma_x   Sigma_c       Vxc         Z     dS/de
 in eV                                    
 ------------------------------------------------------------------------------------
   1  -305.727  -322.791   -87.839   -97.288     9.449     0.000     0.194    -4.148
   2  -305.712  -322.325   -87.910   -97.289     9.378     0.000     0.189    -4.292
   3  -305.712  -322.327   -87.910   -97.289     9.379     0.000     0.189    -4.291
   4  -305.677  -321.795   -88.023   -97.292     9.269     0.000     0.183    -4.461
   5  -305.677  -321.797   -88.023   -97.292     9.269     0.000     0.183    -4.461
   6  -305.661  -321.526   -88.081   -97.294     9.213     0.000     0.180    -4.552
   7   -31.362   -43.376   -27.350   -26.500    -0.850     0.000     0.439    -1.276
   8   -27.648   -31.729   -28.022   -25.678    -2.344     0.000     0.146    -5.866
   9   -27.648   -31.728   -28.022   -25.678    -2.344     0.000     0.146    -5.868
  10   -22.445   -30.121   -26.443   -23.550    -2.893     0.000     0.290    -2.445
  11   -22.445   -30.121   -26.443   -23.550    -2.893     0.000     0.290    -2.445
  12   -19.350   -30.060   -23.755   -20.751    -3.004     0.000     0.451    -1.218
  13   -17.508   -33.318   -24.620   -21.307    -3.313     0.000     0.642    -0.557
  14   -16.909   -34.733   -27.574   -22.394    -5.180     0.000     0.646    -0.547
  15   -16.034   -34.070   -25.382   -20.847    -4.535     0.000     0.711    -0.407
  16   -16.034   -34.070   -25.382   -20.847    -4.535     0.000     0.711    -0.407
  17   -13.656   -31.280   -23.522   -17.198    -6.324     0.000     0.749    -0.335
  18   -13.492   -34.276   -26.690   -20.935    -5.755     0.000     0.779    -0.284
  19   -13.492   -34.276   -26.690   -20.935    -5.755     0.000     0.779    -0.284
  20    -9.171   -27.735   -23.615   -15.599    -8.016     0.000     0.786    -0.272
  21    -9.171   -27.735   -23.615   -15.599    -8.016     0.000     0.786    -0.272
 ------------------------------------------------------------------------------------
  22     3.364    -1.748    -5.966    -6.815     0.849     0.000     0.857    -0.167
  23     3.364    -1.748    -5.966    -6.815     0.849     0.000     0.857    -0.167
  24     4.270     2.559    -1.881    -1.985     0.104     0.000     0.910    -0.099
  25     5.061     3.660    -1.537    -1.543     0.006     0.000     0.912    -0.097
  26     5.061     3.660    -1.537    -1.543     0.006     0.000     0.912    -0.097
 ------------------------------------------------------------------------------------
 
gw: finished qpe iteration           0         150
 gw: deallocating GW arrays


    ------------------------------------------------------------------------
         total  cpu-time :  2 hours 30 minutes and 48 seconds
         total wall-time :  2 hours 31 minutes and 39 seconds
    ------------------------------------------------------------------------


   ****  escf : all done  ****


    2016-07-18 21:51:39.888 

 escf ended normally
