 hostname is         node57
 this is node-proc. number 0 running on node node57                                                                          
 the total number of node-proc. spawned is   0

   OpenMP run-time library returned nthreads = 12

 data group $actual step is not empty 
 due to the abend of ricc2


 ricc2(node57) : TURBOMOLE V6.3 15 Feb 2011 at 15:33:14
 Copyright (C) 2011 TURBOMOLE GmbH, Karlsruhe


    2012-08-08 15:06:42.449 



                              R I C C 2 - PROGRAM

                          the quantum chemistry groups
                             at the universities in
                           Karlsruhe, Bochum & Mainz
                                   Germany



   *-----------------------------------------------------------------------*
   |                     program will use 12 thread(s)                     |
   *-----------------------------------------------------------------------*

 W A R N I N G : BASIS SET NICKNAME none DOES NOT CONTAIN ATOMIC SYMBOL mg !


  WARNING : no basis functions have been specified for 

        16   mg      
        17   mg      
        18   mg      
        19   mg      
        20   mg      
        21   mg      
        22   mg      
        23   mg      
        24   mg      
        25   mg      
        26   mg      
        27   mg      
        28   mg      
        29   mg      
        30   mg      
        31   mg      
        32   mg      
        33   mg      
        34   mg      
        35   mg      
        36   mg      
        37   mg      
        38   mg      
        39   mg      


              +--------------------------------------------------+
              | Atomic coordinate, charge and isotop information |
              +--------------------------------------------------+


              atomic coordinates              atom shells charge pseudo isotop
    12.07081465   20.11802441   16.09441953    mg    11   12.000    0     0
    16.09441953   16.09441953   16.09441953    mg    11   12.000    0     0
    16.09441953   24.14162929   16.09441953    mg    11   12.000    0     0
    20.11802441   20.11802441   16.09441953    mg    11   12.000    0     0
    16.09441953   20.11802441   12.07081465    mg    11   12.000    0     0
    16.09441953   20.11802441   20.11802441    mg    11   12.000    0     0
    16.09441953   20.11802441   16.09441953    o      9    8.000    0     0
    12.07081465   20.11802441   12.07081465    o      9    8.000    0     0
    16.09441953   16.09441953   12.07081465    o      9    8.000    0     0
    16.09441953   24.14162929   12.07081465    o      9    8.000    0     0
    20.11802441   20.11802441   12.07081465    o      9    8.000    0     0
    12.07081465   20.11802441   20.11802441    o      9    8.000    0     0
    16.09441953   16.09441953   20.11802441    o      9    8.000    0     0
    16.09441953   24.14162929   20.11802441    o      9    8.000    0     0
    20.11802441   20.11802441   20.11802441    o      9    8.000    0     0
     8.04720976   20.11802441   12.07081465    mg     0   12.000    1     0
    12.07081465   16.09441953   12.07081465    mg     0   12.000    1     0
    12.07081465   24.14162929   12.07081465    mg     0   12.000    1     0
    16.09441953   12.07081465   12.07081465    mg     0   12.000    1     0
    16.09441953   28.16523417   12.07081465    mg     0   12.000    1     0
    20.11802441   16.09441953   12.07081465    mg     0   12.000    1     0
    20.11802441   24.14162929   12.07081465    mg     0   12.000    1     0
    24.14162929   20.11802441   12.07081465    mg     0   12.000    1     0
    12.07081465   20.11802441    8.04720976    mg     0   12.000    1     0
    16.09441953   16.09441953    8.04720976    mg     0   12.000    1     0
    16.09441953   24.14162929    8.04720976    mg     0   12.000    1     0
    20.11802441   20.11802441    8.04720976    mg     0   12.000    1     0
     8.04720976   20.11802441   20.11802441    mg     0   12.000    1     0
    12.07081465   16.09441953   20.11802441    mg     0   12.000    1     0
    12.07081465   24.14162929   20.11802441    mg     0   12.000    1     0
    16.09441953   12.07081465   20.11802441    mg     0   12.000    1     0
    16.09441953   28.16523417   20.11802441    mg     0   12.000    1     0
    20.11802441   16.09441953   20.11802441    mg     0   12.000    1     0
    20.11802441   24.14162929   20.11802441    mg     0   12.000    1     0
    24.14162929   20.11802441   20.11802441    mg     0   12.000    1     0
    12.07081465   20.11802441   24.14162929    mg     0   12.000    1     0
    16.09441953   16.09441953   24.14162929    mg     0   12.000    1     0
    16.09441953   24.14162929   24.14162929    mg     0   12.000    1     0
    20.11802441   20.11802441   24.14162929    mg     0   12.000    1     0
 

     center of nuclear mass  :   16.09441953   20.11802441   16.09441953

     center of nuclear charge:   16.09441953   20.11802441   16.09441953


              +--------------------------------------------------+
              |               basis set information              |
              +--------------------------------------------------+


              we will work with the  1s 3p 5d  7f  9g ... basis set
              ...i.e. with spherical basis functions...


   type   atoms  prim   cont   basis
   ---------------------------------------------------------------------------
    mg       6     93     27   cc-pCVDZ   [5s4p2d|35s16p2d]
    o        9     43     23   aug-cc-pVDZ   [4s3p2d|18s5p2d]
   ---------------------------------------------------------------------------
   total:   39    945    369
   ---------------------------------------------------------------------------

   total number of primitive shells          :   78
   total number of contracted shells         :  147
   total number of cartesian basis functions :  399
   total number of SCF-basis functions       :  369



   =========================================================================


     restricted closed shell calculation for the wavefunction models:
               CCSD(T)    - CC Singles and Doubles With Pert. Triples Corr.


     global parameters for ricc2 program:

        hard restart (reuse of interm.) :  enabled 
        soft restart (reuse of vectors) :  enabled 
        threshold for vector function   :  0.100000E-03
        convergence threshold energy    :  0.100000E-04
        linear dependence threshold     :  0.200000E-14
        global print level              :      1
        maximum number of iterations    :   200
        maximum number DIIS vectors     :    10
        max. dim. of reduced space      :   100
        core memory limit (MB)          : 16000
        disk space limit (MB)           :   none


     CCSD(T) energy only: Energy will be calculated directly from T3 amplitudes!


   =========================================================================

 der. integral neglect threshold  :  0.10E-07
 integral neglect threshold       :  0.84E-11
 integral storage threshold THIZE :  0.10E+04
 integral storage threshold THIME :       500

 number of unique ecp types :           1

                  +------------------------------------------+
                  |     Auxiliary basis set information      |
                  +------------------------------------------+

 W A R N I N G : BASIS SET NICKNAME none DOES NOT CONTAIN ATOMIC SYMBOL mg !


  WARNING : no basis functions have been specified for 

        16   mg      
        17   mg      
        18   mg      
        19   mg      
        20   mg      
        21   mg      
        22   mg      
        23   mg      
        24   mg      
        25   mg      
        26   mg      
        27   mg      
        28   mg      
        29   mg      
        30   mg      
        31   mg      
        32   mg      
        33   mg      
        34   mg      
        35   mg      
        36   mg      
        37   mg      
        38   mg      
        39   mg      

   we will work with the  1s 3p 5d  7f  9g 11h 13i auxiliary basis set
   ...i.e. with spherical basis functions...

   type   atoms  prim   cont   basis
   ---------------------------------------------------------------------------
    mg       6    110    110   cc-pCVDZ   [12s10p8d4f|12s10p8d4f]
    o        9     72     72   aug-cc-pVDZ   [8s6p5d3f|8s6p5d3f]
   ---------------------------------------------------------------------------
   total:   39   1308   1308
   ---------------------------------------------------------------------------

   total number of primitive shells          :   56
   total number of contracted shells         :  402
   total number of cartesian basis functions : 1554
   total number of SCF-basis functions       : 1308



     restored sucessfully symmetry projectors

 symmetry group of the molecule :   c1 

 the group has the following generators :
   c1(z)

    1 symmetry operations found

 there are 1 real representations :   a   

 maximum number of shells which are related by symmetry :  1

     skipped calculation of symmetry projectors
  The symmetry information takes            1  MB

*---------------------------------------------------------------------*
|               simplified C1 algorithm will be applied               |
*---------------------------------------------------------------------*
  MOs are in ASCII format !


 reading orbital data $scfmo  from file mos . 

 orbital characterization : scfconv=8
 

         --------------------------------------------------------------
                   checking mo's by calculating trace(D*S)

              number of electrons : 
                 from trace(D*S)         :  149.999999999999
                 from occupation numbers :  150.000000000000

              molecular charge           :   42.000000000000
         --------------------------------------------------------------

 time elapsed for calculating density matrices :   0.012 sec



              +--------------------------------------------+
              | list of orbitals that will be kept frozen: |
              +--------------------------------------------+
              |   irrep   index      energy     occ/vir    |
              +--------------------------------------------+
              |   a         1      -48.8736     occupied   |
              |   a         2      -48.8736     occupied   |
              |   a         3      -48.8736     occupied   |
              |   a         4      -48.8736     occupied   |
              |   a         5      -48.8679     occupied   |
              |   a         6      -48.8679     occupied   |
              |   a         7      -20.4086     occupied   |
              |   a         8      -20.4086     occupied   |
              |   a         9      -20.4085     occupied   |
              |   a        10      -20.4085     occupied   |
              |   a        11      -20.4085     occupied   |
              |   a        12      -20.4085     occupied   |
              |   a        13      -20.4085     occupied   |
              |   a        14      -20.4085     occupied   |
              |   a        15      -20.4084     occupied   |
              +--------------------------------------------+



   Molecular Orbital Statistic:
   ============================


   ---------------------
    irred. repres.:    a
   ---------------------
   frozen occupied:   15
   active occupied:   60
   active virtual :  294
   frozen virtual :    0
   ---------------------
 

   -----------------------------
   orbitals in total:
   -----------------------------
    frozen occupied :     15
    active occupied :     60
    active virtual  :    294
    frozen virtual  :      0
    all together    :    369
   -----------------------------







           atomic orbital partitioning statistics
           ----------------------------------------------------------
           node       first shell       first bf         block length 
           ----------------------------------------------------------
             1                1                1               369
           ----------------------------------------------------------

 total memory allocated for calculation of (Q|P)**(-1/2) : 20 MiB


     calculation of (P|Q)**(-1/2) is skipped because it was found on file
 
          -----------------
          -S,T+V- integrals
          -----------------

 1e-integrals will be neglected if expon. factor < 0.837584E-12
 
           ----------------
           -ecp-  integrals
           ----------------
 ECP: maximum angular momentum =           2
 ECP: maximum angular projector=           1

         +--------------------------------------------------+
         |       EMBEDDING IN PERIODIC POINT CHARGES        |
         |             M. Sierka and A. Burow               |
         +--------------------------------------------------+

 
    +------------------------ Parameters ------------------------+
    -------------------------------------------------------------
      Maximum multipole moment used               : 25
      Multipole precision parameter               :  1.0000E-08
      Minimum separation between cells            :  3.0000E+00
    +-----------------------------------------------------------+
 
 Charge Neutrality tolerance :   0.1000000D-04
 Total charge                :   0.0000000D+00
 
 Cell vectors (au): 
               24.14162931          0.00000000          0.00000000
                0.00000000         24.14162931          0.00000000
                0.00000000          0.00000000         24.14162931

         +--------------------------------------------------+
         | Coordinates of all systems centered about cell 0 |
         +--------------------------------------------------+

 Redefined unit cell content (au): 
     Label               Cartesian Coordinates            Charge
      O       20.11802442   16.09441954    0.00000000   -2.000000
      O       20.11802442   20.11802442   20.11802442   -2.000000
      O        0.00000000   16.09441954   20.11802442   -2.000000
      O        0.00000000   20.11802442    0.00000000   -2.000000
      Mg       0.00000000   20.11802442   20.11802442    2.000000
      Mg       0.00000000   16.09441954    0.00000000    2.000000
      Mg      20.11802442   20.11802442    0.00000000    2.000000
      Mg      20.11802442   16.09441954   20.11802442    2.000000
      O       12.07081465    8.04720977   16.09441954   -2.000000
      O       12.07081465   12.07081465   12.07081465   -2.000000
      O       16.09441954    8.04720977   12.07081465   -2.000000
      O       16.09441954   12.07081465   16.09441954   -2.000000
      Mg      16.09441954   12.07081465   12.07081465    2.000000
      Mg      16.09441954    8.04720977   16.09441954    2.000000
      Mg      12.07081465   12.07081465   16.09441954    2.000000
      Mg      12.07081465    8.04720977   12.07081465    2.000000
      O        4.02360488    8.04720977   16.09441954   -2.000000
      O        4.02360488   12.07081465   12.07081465   -2.000000
      O        8.04720977    8.04720977   12.07081465   -2.000000
      O        8.04720977   12.07081465   16.09441954   -2.000000
      Mg       8.04720977   12.07081465   12.07081465    2.000000
      Mg       8.04720977    8.04720977   16.09441954    2.000000
      Mg       4.02360488   12.07081465   16.09441954    2.000000
      Mg       4.02360488    8.04720977   12.07081465    2.000000
      O       20.11802442    8.04720977   16.09441954   -2.000000
      O       20.11802442   12.07081465   12.07081465   -2.000000
      O        0.00000000    8.04720977   12.07081465   -2.000000
      O        0.00000000   12.07081465   16.09441954   -2.000000
      Mg       0.00000000   12.07081465   12.07081465    2.000000
      Mg       0.00000000    8.04720977   16.09441954    2.000000
      Mg      20.11802442   12.07081465   16.09441954    2.000000
      Mg      20.11802442    8.04720977   12.07081465    2.000000
      O       12.07081465    0.00000000   16.09441954   -2.000000
      O       12.07081465    4.02360488   12.07081465   -2.000000
      O       16.09441954    0.00000000   12.07081465   -2.000000
      O       16.09441954    4.02360488   16.09441954   -2.000000
      Mg      16.09441954    4.02360488   12.07081465    2.000000
      Mg      16.09441954    0.00000000   16.09441954    2.000000
      Mg      12.07081465    4.02360488   16.09441954    2.000000
      Mg      12.07081465    0.00000000   12.07081465    2.000000
      O        4.02360488    0.00000000   16.09441954   -2.000000
      O        4.02360488    4.02360488   12.07081465   -2.000000
      O        8.04720977    0.00000000   12.07081465   -2.000000
      O        8.04720977    4.02360488   16.09441954   -2.000000
      Mg       8.04720977    4.02360488   12.07081465    2.000000
      Mg       8.04720977    0.00000000   16.09441954    2.000000
      Mg       4.02360488    4.02360488   16.09441954    2.000000
      Mg       4.02360488    0.00000000   12.07081465    2.000000
      O       20.11802442    0.00000000   16.09441954   -2.000000
      O       20.11802442    4.02360488   12.07081465   -2.000000
      O        0.00000000    0.00000000   12.07081465   -2.000000
      O        0.00000000    4.02360488   16.09441954   -2.000000
      Mg       0.00000000    4.02360488   12.07081465    2.000000
      Mg       0.00000000    0.00000000   16.09441954    2.000000
      Mg      20.11802442    4.02360488   16.09441954    2.000000
      Mg      20.11802442    0.00000000   12.07081465    2.000000
      O       12.07081465   16.09441954   16.09441954   -2.000000
      O       12.07081465   20.11802442   12.07081465   -2.000000
      O       16.09441954   16.09441954   12.07081465   -2.000000
      O       16.09441954   20.11802442   16.09441954   -2.000000
      Mg      16.09441954   20.11802442   12.07081465    2.000000
      Mg      16.09441954   16.09441954   16.09441954    2.000000
      Mg      12.07081465   20.11802442   16.09441954    2.000000
      Mg      12.07081465   16.09441954   12.07081465    2.000000
      O        4.02360488   16.09441954   16.09441954   -2.000000
      O        4.02360488   20.11802442   12.07081465   -2.000000
      O        8.04720977   16.09441954   12.07081465   -2.000000
      O        8.04720977   20.11802442   16.09441954   -2.000000
      Mg       8.04720977   20.11802442   12.07081465    2.000000
      Mg       8.04720977   16.09441954   16.09441954    2.000000
      Mg       4.02360488   20.11802442   16.09441954    2.000000
      Mg       4.02360488   16.09441954   12.07081465    2.000000
      O       20.11802442   16.09441954   16.09441954   -2.000000
      O       20.11802442   20.11802442   12.07081465   -2.000000
      O        0.00000000   16.09441954   12.07081465   -2.000000
      O        0.00000000   20.11802442   16.09441954   -2.000000
      Mg       0.00000000   20.11802442   12.07081465    2.000000
      Mg       0.00000000   16.09441954   16.09441954    2.000000
      Mg      20.11802442   20.11802442   16.09441954    2.000000
      Mg      20.11802442   16.09441954   12.07081465    2.000000
      O       12.07081465    8.04720977    8.04720977   -2.000000
      O       12.07081465   12.07081465    4.02360488   -2.000000
      O       16.09441954    8.04720977    4.02360488   -2.000000
      O       16.09441954   12.07081465    8.04720977   -2.000000
      Mg      16.09441954   12.07081465    4.02360488    2.000000
      Mg      16.09441954    8.04720977    8.04720977    2.000000
      Mg      12.07081465   12.07081465    8.04720977    2.000000
      Mg      12.07081465    8.04720977    4.02360488    2.000000
      O        4.02360488    8.04720977    8.04720977   -2.000000
      O        4.02360488   12.07081465    4.02360488   -2.000000
      O        8.04720977    8.04720977    4.02360488   -2.000000
      O        8.04720977   12.07081465    8.04720977   -2.000000
      Mg       8.04720977   12.07081465    4.02360488    2.000000
      Mg       8.04720977    8.04720977    8.04720977    2.000000
      Mg       4.02360488   12.07081465    8.04720977    2.000000
      Mg       4.02360488    8.04720977    4.02360488    2.000000
      O       20.11802442    8.04720977    8.04720977   -2.000000
      O       20.11802442   12.07081465    4.02360488   -2.000000
      O        0.00000000    8.04720977    4.02360488   -2.000000
      O        0.00000000   12.07081465    8.04720977   -2.000000
      Mg       0.00000000   12.07081465    4.02360488    2.000000
      Mg       0.00000000    8.04720977    8.04720977    2.000000
      Mg      20.11802442   12.07081465    8.04720977    2.000000
      Mg      20.11802442    8.04720977    4.02360488    2.000000
      O       12.07081465    0.00000000    8.04720977   -2.000000
      O       12.07081465    4.02360488    4.02360488   -2.000000
      O       16.09441954    0.00000000    4.02360488   -2.000000
      O       16.09441954    4.02360488    8.04720977   -2.000000
      Mg      16.09441954    4.02360488    4.02360488    2.000000
      Mg      16.09441954    0.00000000    8.04720977    2.000000
      Mg      12.07081465    4.02360488    8.04720977    2.000000
      Mg      12.07081465    0.00000000    4.02360488    2.000000
      O        4.02360488    0.00000000    8.04720977   -2.000000
      O        4.02360488    4.02360488    4.02360488   -2.000000
      O        8.04720977    0.00000000    4.02360488   -2.000000
      O        8.04720977    4.02360488    8.04720977   -2.000000
      Mg       8.04720977    4.02360488    4.02360488    2.000000
      Mg       8.04720977    0.00000000    8.04720977    2.000000
      Mg       4.02360488    4.02360488    8.04720977    2.000000
      Mg       4.02360488    0.00000000    4.02360488    2.000000
      O       20.11802442    0.00000000    8.04720977   -2.000000
      O       20.11802442    4.02360488    4.02360488   -2.000000
      O        0.00000000    0.00000000    4.02360488   -2.000000
      O        0.00000000    4.02360488    8.04720977   -2.000000
      Mg       0.00000000    4.02360488    4.02360488    2.000000
      Mg       0.00000000    0.00000000    8.04720977    2.000000
      Mg      20.11802442    4.02360488    8.04720977    2.000000
      Mg      20.11802442    0.00000000    4.02360488    2.000000
      O       12.07081465   16.09441954    8.04720977   -2.000000
      O       12.07081465   20.11802442    4.02360488   -2.000000
      O       16.09441954   16.09441954    4.02360488   -2.000000
      O       16.09441954   20.11802442    8.04720977   -2.000000
      Mg      16.09441954   20.11802442    4.02360488    2.000000
      Mg      16.09441954   16.09441954    8.04720977    2.000000
      Mg      12.07081465   20.11802442    8.04720977    2.000000
      Mg      12.07081465   16.09441954    4.02360488    2.000000
      O        4.02360488   16.09441954    8.04720977   -2.000000
      O        4.02360488   20.11802442    4.02360488   -2.000000
      O        8.04720977   16.09441954    4.02360488   -2.000000
      O        8.04720977   20.11802442    8.04720977   -2.000000
      Mg       8.04720977   20.11802442    4.02360488    2.000000
      Mg       8.04720977   16.09441954    8.04720977    2.000000
      Mg       4.02360488   20.11802442    8.04720977    2.000000
      Mg       4.02360488   16.09441954    4.02360488    2.000000
      O       20.11802442   16.09441954    8.04720977   -2.000000
      O       20.11802442   20.11802442    4.02360488   -2.000000
      O        0.00000000   16.09441954    4.02360488   -2.000000
      O        0.00000000   20.11802442    8.04720977   -2.000000
      Mg       0.00000000   20.11802442    4.02360488    2.000000
      Mg       0.00000000   16.09441954    8.04720977    2.000000
      Mg      20.11802442   20.11802442    8.04720977    2.000000
      Mg      20.11802442   16.09441954    4.02360488    2.000000
      O       12.07081465    8.04720977    0.00000000   -2.000000
      O       12.07081465   12.07081465   20.11802442   -2.000000
      O       16.09441954    8.04720977   20.11802442   -2.000000
      O       16.09441954   12.07081465    0.00000000   -2.000000
      Mg      16.09441954   12.07081465   20.11802442    2.000000
      Mg      16.09441954    8.04720977    0.00000000    2.000000
      Mg      12.07081465   12.07081465    0.00000000    2.000000
      Mg      12.07081465    8.04720977   20.11802442    2.000000
      O        4.02360488    8.04720977    0.00000000   -2.000000
      O        4.02360488   12.07081465   20.11802442   -2.000000
      O        8.04720977    8.04720977   20.11802442   -2.000000
      O        8.04720977   12.07081465    0.00000000   -2.000000
      Mg       8.04720977   12.07081465   20.11802442    2.000000
      Mg       8.04720977    8.04720977    0.00000000    2.000000
      Mg       4.02360488   12.07081465    0.00000000    2.000000
      Mg       4.02360488    8.04720977   20.11802442    2.000000
      O       20.11802442    8.04720977    0.00000000   -2.000000
      O       20.11802442   12.07081465   20.11802442   -2.000000
      O        0.00000000    8.04720977   20.11802442   -2.000000
      O        0.00000000   12.07081465    0.00000000   -2.000000
      Mg       0.00000000   12.07081465   20.11802442    2.000000
      Mg       0.00000000    8.04720977    0.00000000    2.000000
      Mg      20.11802442   12.07081465    0.00000000    2.000000
      Mg      20.11802442    8.04720977   20.11802442    2.000000
      O       12.07081465    0.00000000    0.00000000   -2.000000
      O       12.07081465    4.02360488   20.11802442   -2.000000
      O       16.09441954    0.00000000   20.11802442   -2.000000
      O       16.09441954    4.02360488    0.00000000   -2.000000
      Mg      16.09441954    4.02360488   20.11802442    2.000000
      Mg      16.09441954    0.00000000    0.00000000    2.000000
      Mg      12.07081465    4.02360488    0.00000000    2.000000
      Mg      12.07081465    0.00000000   20.11802442    2.000000
      O        4.02360488    0.00000000    0.00000000   -2.000000
      O        4.02360488    4.02360488   20.11802442   -2.000000
      O        8.04720977    0.00000000   20.11802442   -2.000000
      O        8.04720977    4.02360488    0.00000000   -2.000000
      Mg       8.04720977    4.02360488   20.11802442    2.000000
      Mg       8.04720977    0.00000000    0.00000000    2.000000
      Mg       4.02360488    4.02360488    0.00000000    2.000000
      Mg       4.02360488    0.00000000   20.11802442    2.000000
      O       20.11802442    0.00000000    0.00000000   -2.000000
      O       20.11802442    4.02360488   20.11802442   -2.000000
      O        0.00000000    0.00000000   20.11802442   -2.000000
      O        0.00000000    4.02360488    0.00000000   -2.000000
      Mg       0.00000000    4.02360488   20.11802442    2.000000
      Mg       0.00000000    0.00000000    0.00000000    2.000000
      Mg      20.11802442    4.02360488    0.00000000    2.000000
      Mg      20.11802442    0.00000000   20.11802442    2.000000
      O       12.07081465   16.09441954    0.00000000   -2.000000
      O       12.07081465   20.11802442   20.11802442   -2.000000
      O       16.09441954   16.09441954   20.11802442   -2.000000
      O       16.09441954   20.11802442    0.00000000   -2.000000
      Mg      16.09441954   20.11802442   20.11802442    2.000000
      Mg      16.09441954   16.09441954    0.00000000    2.000000
      Mg      12.07081465   20.11802442    0.00000000    2.000000
      Mg      12.07081465   16.09441954   20.11802442    2.000000
      O        4.02360488   16.09441954    0.00000000   -2.000000
      O        4.02360488   20.11802442   20.11802442   -2.000000
      O        8.04720977   16.09441954   20.11802442   -2.000000
      O        8.04720977   20.11802442    0.00000000   -2.000000
      Mg       8.04720977   20.11802442   20.11802442    2.000000
      Mg       8.04720977   16.09441954    0.00000000    2.000000
      Mg       4.02360488   20.11802442    0.00000000    2.000000
      Mg       4.02360488   16.09441954   20.11802442    2.000000

 PC cluster transformed to the center of cell 0 (au): 
     Label               Cartesian Coordinates         Cell Indices
      Mg       8.04720977   12.07081465   12.07081465   0   0   0
      Mg      12.07081465    8.04720977   12.07081465   0   0   0
      Mg      12.07081465   16.09441954   12.07081465   0   0   0
      Mg      16.09441954   12.07081465   12.07081465   0   0   0
      Mg      12.07081465   12.07081465    8.04720977   0   0   0
      Mg      12.07081465   12.07081465   16.09441954   0   0   0
      O       12.07081465   12.07081465   12.07081465   0   0   0
      O        8.04720977   12.07081465    8.04720977   0   0   0
      O       12.07081465    8.04720977    8.04720977   0   0   0
      O       12.07081465   16.09441954    8.04720977   0   0   0
      O       16.09441954   12.07081465    8.04720977   0   0   0
      O        8.04720977   12.07081465   16.09441954   0   0   0
      O       12.07081465    8.04720977   16.09441954   0   0   0
      O       12.07081465   16.09441954   16.09441954   0   0   0
      O       16.09441954   12.07081465   16.09441954   0   0   0
      Mg       4.02360488   12.07081465    8.04720977   0   0   0
      Mg       8.04720977    8.04720977    8.04720977   0   0   0
      Mg       8.04720977   16.09441954    8.04720977   0   0   0
      Mg      12.07081465    4.02360488    8.04720977   0   0   0
      Mg      12.07081465   20.11802442    8.04720977   0   0   0
      Mg      16.09441954    8.04720977    8.04720977   0   0   0
      Mg      16.09441954   16.09441954    8.04720977   0   0   0
      Mg      20.11802442   12.07081465    8.04720977   0   0   0
      Mg       8.04720977   12.07081465    4.02360488   0   0   0
      Mg      12.07081465    8.04720977    4.02360488   0   0   0
      Mg      12.07081465   16.09441954    4.02360488   0   0   0
      Mg      16.09441954   12.07081465    4.02360488   0   0   0
      Mg       4.02360488   12.07081465   16.09441954   0   0   0
      Mg       8.04720977    8.04720977   16.09441954   0   0   0
      Mg       8.04720977   16.09441954   16.09441954   0   0   0
      Mg      12.07081465    4.02360488   16.09441954   0   0   0
      Mg      12.07081465   20.11802442   16.09441954   0   0   0
      Mg      16.09441954    8.04720977   16.09441954   0   0   0
      Mg      16.09441954   16.09441954   16.09441954   0   0   0
      Mg      20.11802442   12.07081465   16.09441954   0   0   0
      Mg       8.04720977   12.07081465   20.11802442   0   0   0
      Mg      12.07081465    8.04720977   20.11802442   0   0   0
      Mg      12.07081465   16.09441954   20.11802442   0   0   0
      Mg      16.09441954   12.07081465   20.11802442   0   0   0

 QM cluster transformed to the center of cell 0 (au): 
          Atom               Cartesian Coordinates
           mg       8.04720976   12.07081464   12.07081464
           mg      12.07081464    8.04720976   12.07081464
           mg      12.07081464   16.09441952   12.07081464
           mg      16.09441953   12.07081464   12.07081464
           mg      12.07081464   12.07081464    8.04720976
           mg      12.07081464   12.07081464   16.09441953
           o       12.07081464   12.07081464   12.07081464
           o        8.04720976   12.07081464    8.04720976
           o       12.07081464    8.04720976    8.04720976
           o       12.07081464   16.09441952    8.04720976
           o       16.09441953   12.07081464    8.04720976
           o        8.04720976   12.07081464   16.09441953
           o       12.07081464    8.04720976   16.09441953
           o       12.07081464   16.09441952   16.09441953
           o       16.09441953   12.07081464   16.09441953
           mg       4.02360488   12.07081464    8.04720976
           mg       8.04720976    8.04720976    8.04720976
           mg       8.04720976   16.09441952    8.04720976
           mg      12.07081464    4.02360488    8.04720976
           mg      12.07081464   20.11802441    8.04720976
           mg      16.09441953    8.04720976    8.04720976
           mg      16.09441953   16.09441952    8.04720976
           mg      20.11802441   12.07081464    8.04720976
           mg       8.04720976   12.07081464    4.02360488
           mg      12.07081464    8.04720976    4.02360488
           mg      12.07081464   16.09441952    4.02360488
           mg      16.09441953   12.07081464    4.02360488
           mg       4.02360488   12.07081464   16.09441953
           mg       8.04720976    8.04720976   16.09441953
           mg       8.04720976   16.09441952   16.09441953
           mg      12.07081464    4.02360488   16.09441953
           mg      12.07081464   20.11802441   16.09441953
           mg      16.09441953    8.04720976   16.09441953
           mg      16.09441953   16.09441952   16.09441953
           mg      20.11802441   12.07081464   16.09441953
           mg       8.04720976   12.07081464   20.11802441
           mg      12.07081464    8.04720976   20.11802441
           mg      12.07081464   16.09441952   20.11802441
           mg      16.09441953   12.07081464   20.11802441
  
 Extensions and centers of shell-pairs:
  number of shells with a single center:     9427
  number of shells with double centers:       516

 Size of the simulation box:     24.14163 a.u. 
 Radius of 1st FMM zone:         96.56652 a.u. 
 Radius of QM cluster:           22.13037 a.u. 
 Radius of PC cluster:            8.99705 a.u. 
 Final radius of 1st FMM zone:   96.56652 a.u. 

 # of cells of 1st FMM zone:        257
 # of PCs in 1st FMM zone:          700

 1e-integrals will be neglected if expon. factor < 0.837584E-12

 Unit cell Cartesian dipole moment (au): 
   x component:         0.00000
   y component:         0.00000
   z component:         0.00000

 Cell moments up to l = 2:
   0.0E+00   0.0E+00  -3.6E-15   0.0E+00
   1.8E-15   8.9E-15  -9.9E-14   0.0E+00
  -2.8E-14   3.6E-14  -7.1E-15  -3.6E-15
 Corected moments up to l = 2:
   0.0E+00   0.0E+00   0.0E+00   0.0E+00
  -3.9E-31   0.0E+00  -2.3E-13   0.0E+00
   1.4E-14   1.2E-13  -7.1E-14  -4.6E-14
 Near-field electrostatic energy:      -934.8706687235
 Far-field electrostatic energy:        -13.5641252186
 Total electrostatic energy:           1593.7652393365

   threshold for RMS(d[D]) in SCF was     :  0.10E-06
   integral neglect threshold             :  0.84E-11
   derivative integral neglect threshold  :  0.10E-07


   =========================================================================

     Energy of reference wave function is -1991.4692699090001
     Maximum orbital residual is          0.1051765547628E-06


     Number of symmetry-nonredundant auxiliary basis functions:     1308

     Block lengths for integral files:
        frozen occupied (BOI):        1 MiB
        active occupied (BJI):        1 MiB
        active virtual  (BAI):        3 MiB
        frozen virtual  (BGI):        0 MiB
               general  (BTI):        4 MiB

   =========================================================================


     time in lp3int        cpu: 57.54 sec    wall:  0.68 sec    ratio: 84.5
     time in lp3tra        cpu: 30.86 sec    wall:  0.27 sec    ratio: ****
     time in trdreicc      cpu: 32.56 sec    wall:  0.24 sec    ratio: ****
     time in cctrauxtrn    cpu: 47.52 sec    wall:  0.34 sec    ratio: ****
     time in I/O           cpu:  0.07 sec    wall:  0.01 sec    ratio: 12.0
     time in mkbaoi total  cpu: 18.77 sec    wall:  1.71 sec    ratio: 11.0


      *********************************************************************
      *              no explicit correlation will be included             *
      *********************************************************************


     time in 3idx,ccsdint  cpu:  1 min  0 s  wall:  0 min  6 s  ratio: 10.9

     Calculate integrals (ia|jb) for MP2 start guess



      *********************************************************************
      *                                                                   *
      *  RHF  energy                             :  -1991.4692699090      *
      *  MP2 correlation energy (doubles)        :     -3.0293429943      *
      *                                                                   *
      *  Final MP2 energy                        :  -1994.4986129033      *
      *                                                                   *
      *   E(S)   =     -1.7748824213      E(T)   =     -1.2544605730      *
      *   E(OS)  =     -2.1930359456      E(SS)  =     -0.8363070487      *
      *                                                                   *
      *  SCS-MP2 energy                          :  -1994.3796820600      *
      *  (computed with  C(OS) =   1.2000  and  C(SS) =   0.3333)         *
      *                                                                   *
      *  SOS-MP2 energy                          :  -1994.3202166383      *
      *  (computed with  C(OS) =   1.3000)                                *
      *                                                                   *
      *  Norm of MP1 T2 amplitudes               :      0.4733089341      *
      *                                                                   *
      *********************************************************************

     time in ccsdint       cpu:  6 min 12 s  wall:  0 min 32 s  ratio: 11.7

   restarted calculation begins with wavefunction model nb. 1 which is CCSD(T) 


   **************************************************************************
   *                                                                        *
   *          OPTIMIZATION OF THE GROUND STATE CLUSTER AMPLITUDES           *
   *                                                                        *
   **************************************************************************
     threshold for screening of BF intermediate: 0.19E-11
     restart CCSD from CCSD amplitudes found on the R0  file.
     remaining residual norm is   0.19E-03
     CCSD restart energy:  -1994.5383356688


   Iter.   CCSD energy      Norm(Omega)    Norm(t1)  Norm(t2)     cpu    wall
   ...........................................................................
    1  -1994.5383451004    0.0000554792     0.09986   0.51264  341.74   33.60
   ...........................................................................
   CC equations converged in  1 iterations.

   last energy change         :  0.94E-05
   convergence threshold      :  0.10E-04
   norm of the vector function:  0.55E-04
   convergence threshold      :  0.10E-03

     time in total         cpu:  5 h 41 min  wall:  0 h 33 min  ratio: 10.2


      *********************************************************************
      *                                                                   *
      *  RHF  energy                             :  -1991.4692699090      *
      *  correlation energy                      :     -3.0690751914      *
      *                                                                   *
      *  Final CCSD energy                       :  -1994.5383451004      *
      *                                                                   *
      *  D1 diagnostic                           :      0.0323            *
      *                                                                   *
      *********************************************************************


  ----------------------------------------------------------------------------
  hard_restart flag is disabled because the check sum for the
  energy "$energy_CCSD(T) " differs from the reference value:
  reference value:    -1994.53834510385    
  computed value :    -1994.53834510042    
  relative error :    0.171977604549789E-11
  tolerance      :    0.100000000000000E-11
  the calculation will proceed...
  ----------------------------------------------------------------------------
     time in triples corr  cpu:   5 d 17 h  3 min  wall:   0 d 14 h 23 min  ratio:  9.5


      *********************************************************************
      *                                                                   *
      *  RHF  energy                             :  -1991.4692699090      *
      *  CCSD correlation energy                 :     -3.0690751914      *
      *  E4 doubles and triples contribution     :     -0.0604178300      *
      *  E5 singles and triples contribution     :      0.0036240397      *
      *  total correlation energy                :     -3.1258689817      *
      *                                                                   *
      *  Final CCSD(T) energy                    :  -1994.5951388907      *
      *                                                                   *
      *  D1 diagnostic (CCSD)                    :      0.0323            *
      *                                                                   *
      *********************************************************************




    --------------------------------------------------------------------------
 
  time in BF intermed.  cpu:  3 h 49 min  wall:  0 h 19 min  ratio: 11.6   2.2%
  time in A  term       cpu:  2 min 22 s  wall:  2 min 22 s  ratio:  1.0   0.3%
  time in CD intermed.  cpu:  1 h  0 min  wall:  0 h  6 min  ratio:  9.3   0.7%
  time in CD term       cpu: 48 min 31 s  wall:  4 min 16 s  ratio: 11.4   0.5%
 
  time in ccn7engine    cpu:   5 d 17 h  3 min  wall:   0 d 14 h 23 min  ratio:  9.5  96.2%

    --------------------------------------------------------------------------
     time in total         cpu:   5 d 22 h 56 min  wall:   0 d 14 h 57 min  ratio:  9.6





    ------------------------------------------------------------------------
         total  cpu-time :   5 days 22 hours 52 minutes and  3 seconds
         total wall-time : 14 hours 57 minutes and 31 seconds
    ------------------------------------------------------------------------


   ****  ricc2 : all done  ****


    2012-08-09 06:04:13.589 

