tmpdir in control file set to "/local/59136/0".
This directory must exist and be writable by the master process (slave1).
STARTING ridft ON 40 PROCESSORS!
RUNNING PROGRAM /home/surfacechem/public/mr_soft/chemsoft/lx24-em64t/Turbomole_7.3/TURBOMOLE/bin/em64t-unknown-linux-gnu_mpi/ridft_mpi.
/home/surfacechem/public/mr_soft/chemsoft/lx24-em64t/Turbomole_7.3/TURBOMOLE/mpirun_scripts/PMPI/bin/mpirun -machinefile NodeFile.126628 -e OMP_NUM_THREADS=40 -e TURBODIR=/home/surfacechem/public/mr_soft/chemsoft/lx24-em64t/Turbomole_7.3/TURBOMOLE -e OMP_STACK_SIZE=256M -e LD_LIBRARY_PATH=/home/surfacechem/public/mr_soft/chemsoft/lx24-em64t/Turbomole_7.3/TURBOMOLE/libso/em64t-unknown-linux-gnu_mpi:/home/surfacechem/public/mr_soft/chemsoft/local/openmpi-3.1.3_gcc-7.4.0_static/lib64:/home/surfacechem/public/mr_soft/chemsoft/local/gcc-7.4.0/lib64:/home/surfacechem/public/mr_soft/chemsoft/local/gcc-7.4.0/lib:/home/surfacechem/public/mr_soft/chemsoft/lx24-em64t/Gaussian_16_A.03_NBO_3.1_64_sandybridge-64/g16/bsd:/home/surfacechem/public/mr_soft/chemsoft/lx24-em64t/Gaussian_16_A.03_NBO_3.1_64_sandybridge-64/g16:/lib:/home/surfacechem/mr_soft/chemsoft/lib /home/surfacechem/public/mr_soft/chemsoft/lx24-em64t/Turbomole_7.3/TURBOMOLE/bin/em64t-unknown-linux-gnu_mpi/ridft_mpi
 this is node-proc. number 0 running on node node54-004.cm.cluster
 the total number of node-proc. spawned is   1
 GA version: using    1 (total) on    1 nhosts.
 operating system is UNIX !

 ridft (node54-004.cm.cluster) : TURBOMOLE V7.3 ( 22135 ) 9 Jul 2018 at 10:31:25
 Copyright (C) 2018 TURBOMOLE GmbH, Karlsruhe


    2019-06-05 01:37:30.612 



                                  r i d f t

                        DFT program with RI approximation 
                                for coulomb part 




                                                 
                                 References:     
                                                 
          TURBOMOLE:                             
              R. Ahlrichs, M. Baer, M. Haeser, H. Horn, and
              C. Koelmel
              Electronic structure calculations on workstation
              computers: the program system TURBOMOLE
              Chem. Phys. Lett. 162: 165 (1989)
          Density Functional:                              
              O. Treutler and R. Ahlrichs                      
              Efficient Molecular Numerical Integration Schemes
              J. Chem. Phys. 102: 346 (1995)                   
          Parallel Version:                                
              Performance of parallel TURBOMOLE for Density    
              Functional Calculations                          
              M. v. Arnim and R. Ahlrichs                      
              J. Comp. Chem. 19: 1746 (1998)                   
          RI-J Method:                                     
              Auxiliary Basis Sets to approximate Coulomb      
              Potentials                                       
              Chem. Phys. Lett. 240: 283 (1995)                
              K. Eichkorn, O. Treutler, H. Oehm, M. Haeser     
              and R. Ahlrichs                                  
              Chem. Phys. Lett. 242: 652 (1995)                
                                                           
              Auxiliary Basis Sets for Main Row Atoms and their
              Use to approximate Coulomb Potentials            
              K. Eichkorn, F. Weigend, O. Treutler and         
              R. Ahlrichs                                      
              Theo. Chem. Acc. 97: 119 (1997)                   
                                                           
              Accurate Coulomb-fitting basis sets for H to Rn 
              F. Weigend                                        
              Phys. Chem. Chem. Phys. 8: 1057 (2006)            
                                                           
          Multipole accelerated RI-J (MARI-J):             
              Fast evaluation of the Coulomb potential for     
              electron densities using multipole accelerated   
              resolution of identity approximation             
              M. Sierka, A. Hogekamp and R. Ahlrichs           
              J. Chem. Phys. 118: 9136 (2003)                  
          RI-JK Method:                                     
              A fully direct RI-HF algorithm: Implementation,
              optimised auxiliary basis sets, demonstration of
              accuracy and efficiency                         
              F. Weigend                                      
              Phys. Chem. Chem. Phys. 4: 4285 (2002)           
          Two-component HF and DFT with spin-orbit coupling:  
              Self-consistent treatment of spin-orbit         
              interactions with efficient Hartree-Fock and    
              density functional methods                      
              M. K. Armbruster, F. Weigend, C. van Wüllen and 
              W. Klopper                                      
              Phys. Chem. Chem. Phys. 10: 1748 (2008)         
          Two-component difference density and DIIS algorithm 
              Efficient two-component self-consistent field   
              procedures and gradients: implementation in     
              TURBOMOLE and application to Au20-              
              A. Baldes, F. Weigend                           
              Mol. Phys. 111: 2617 (2013)                     
          Relativistic all-electron 2c calculations           
              An efficient implementation of two-component    
              relativistic exact-decoupling methods for large 
              molecules                                       
              D. Peng, N. Middendorf, F. Weigend, M. Reiher   
              J. Chem. Phys. 138: 184105 (2013)               
          Finite nucleus model and SNSO approximation         
              Efficient implementation of one- and two-       
              component analytical energy gradients in exact  
              two-component theory                            
              Y. J. Franzke, N. Middendorf, F. Weigend        
              J. Chem. Phys. 148: 104110 (2018)               
                                         


 ********** GlobalArray OPTION SETTINGS : **********
 *****************************************************


              +--------------------------------------------------+
              |      general information about current run       |
              +--------------------------------------------------+

 

 SCF run will be profiled !


 UHF modus switched on !
 PBE0 hybrid functional
 exchange:    3/4 (LDA+PBE) + 1/4 HF
 correlation: LDA (PW) + PBE
 A Hybrid-DFT calculation using the RI-J approximation will be carried out.
 Allocatable memory for RI due to $ricore (MB):                  3412


              +--------------------------------------------------+
              | Atomic coordinate, charge and isotop information |
              +--------------------------------------------------+

                    atomic coordinates            atom    charge  isotop
         -0.51948006   -2.25927954    2.45749117    gd    64.000     0
          0.10721286   -9.90675609    2.26655743    n      7.000     0
         -3.13744771   -6.63769699    2.95145903    n      7.000     0
         -7.47899802   -5.24786157    3.89451856    n      7.000     0
          6.87166745   -4.01200132    1.09083549    n      7.000     0
          2.79837161   -6.13023852    1.85489896    n      7.000     0
         -5.41708648   -1.09352433    3.50178708    n      7.000     0
         -5.44687315    3.56013217    3.50475745    n      7.000     0
         -0.96967882    2.84218876    2.44593461    n      7.000     0
          3.32088567    4.30768103    1.38400756    n      7.000     0
          4.11819292   -0.27795448    1.47886375    n      7.000     0
        -21.93587401   -2.33318716    5.23388579    c      6.000     0
        -21.15805204   -1.45366619    9.81875984    c      6.000     0
        -18.70568571    7.38591803    8.93509652    c      6.000     0
        -20.43535730    6.67553155    4.58992054    c      6.000     0
        -15.24186927  -18.52525508    2.67693650    c      6.000     0
        -14.95523372  -17.56038347    7.29990748    c      6.000     0
         -7.34439285  -22.64003749    6.46815256    c      6.000     0
         -7.16382868  -22.77575340    1.74368120    c      6.000     0
          9.37829917  -20.84127730   -3.00739633    c      6.000     0
          9.28582327  -21.55023966    1.67089939    c      6.000     0
         16.58969390  -16.10321792    1.35364235    c      6.000     0
         16.20548593  -14.61792510   -3.12084529    c      6.000     0
         16.55794799   10.68746555   -0.60136831    c      6.000     0
         16.16203835    9.48227108   -5.16000652    c      6.000     0
         19.62125795    0.95227055   -4.42732249    c      6.000     0
         20.80020501    2.62170607   -0.16206296    c      6.000     0
          1.13150861   19.23626162   -1.31124001    c      6.000     0
          2.89086923   19.03223838    3.07726635    c      6.000     0
         -6.05356567   18.81319507    5.21017079    c      6.000     0
         -7.70382660   17.96653904    0.85693371    c      6.000     0
         17.01224608    8.55643487   -2.52764716    c      6.000     0
         19.33722883    3.20984133   -2.61584078    c      6.000     0
         20.48262965    5.54018996   -3.92599523    c      6.000     0
         19.86431309    7.98423468   -2.55502908    c      6.000     0
         -5.29155242   18.39107494    2.42688686    c      6.000     0
         -3.97118530   20.76435912    1.38599275    c      6.000     0
          0.44836223   18.89047520    1.50277397    c      6.000     0
         -1.29302267   21.05110085    2.37626606    c      6.000     0
        -13.56883777  -18.78063136    5.05329385    c      6.000     0
        -13.16550274  -21.59127362    5.68785878    c      6.000     0
        -11.34492922  -22.87650437    3.87891403    c      6.000     0
         -8.66313595  -21.76035652    4.01926261    c      6.000     0
         10.58619124  -20.06756285   -0.46665397    c      6.000     0
         13.40461523  -20.78839166   -0.45165603    c      6.000     0
         14.99049230  -16.29574171   -1.07916882    c      6.000     0
         15.00035776  -19.03226154   -2.06666084    c      6.000     0
        -23.04864093    1.88083572    6.97880778    c      6.000     0
        -22.14762353    4.24979400    8.32654957    c      6.000     0
        -21.12316972   -0.29382929    7.14269161    c      6.000     0
        -19.75698739    5.37763990    7.11243053    c      6.000     0
         11.79980949  -12.89122191   -0.18091569    c      6.000     0
         12.28693950  -15.44837044   -0.47589518    c      6.000     0
         10.25505987  -17.20913177   -0.12600046    c      6.000     0
          7.87303630  -16.27940517    0.44262581    c      6.000     0
         -6.55556143  -17.53310992    3.55461628    c      6.000     0
         -8.76361974  -18.86561058    4.01114609    c      6.000     0
        -11.03174140  -17.47924619    4.54217711    c      6.000     0
        -10.94014114  -14.86064612    4.51442446    c      6.000     0
        -15.34116070    3.99546330    6.04395489    c      6.000     0
        -17.80593788    3.29958628    6.59404447    c      6.000     0
        -18.44791525    0.66603753    6.57826636    c      6.000     0
        -16.55751712   -1.08431613    6.10267153    c      6.000     0
         15.49740986    6.18184611   -1.85137717    c      6.000     0
         12.97065540    6.44437304   -1.21150777    c      6.000     0
         16.56155416    3.69057433   -1.94428446    c      6.000     0
         -3.52888148   16.09849002    2.27238349    c      6.000     0
         -4.54185276   13.70746487    2.61909650    c      6.000     0
         -0.86380181   16.33015443    1.83920010    c      6.000     0
          0.57350333   14.14763643    1.65546075    c      6.000     0
         15.03831080    1.64902262   -1.33230519    c      6.000     0
         -2.18964156   -9.06863776    2.72583214    c      6.000     0
         -5.68997758   -6.92432375    3.46977340    c      6.000     0
         -4.16576750  -10.95853720    3.09904967    c      6.000     0
         -6.40477658   -9.58982016    3.57165796    c      6.000     0
         -4.12666526  -13.56135676    3.07387180    c      6.000     0
         -8.67048811  -10.78778011    4.03614838    c      6.000     0
         -6.42083028  -14.86597347    3.54433094    c      6.000     0
         -8.71025242  -13.46976776    4.03249703    c      6.000     0
          9.38358866  -11.90923590    0.39875451    c      6.000     0
          7.33407918  -13.67766945    0.71597313    c      6.000     0
         12.46179153    1.88168766   -0.66648452    c      6.000     0
         11.38105547    4.38319180   -0.61402155    c      6.000     0
        -12.13653368   -2.24957303    5.08186351    c      6.000     0
        -14.02748057   -0.41155269    5.57117169    c      6.000     0
        -13.39899621    2.24002917    5.51461970    c      6.000     0
        -10.89620705    3.01408236    4.94109648    c      6.000     0
         -0.43715087   11.69187572    1.93987929    c      6.000     0
         -3.09731908   11.46423276    2.49013132    c      6.000     0
          4.86380496  -12.78588320    1.25436913    c      6.000     0
          8.93149453   -9.27538739    0.62796317    c      6.000     0
         -4.18821801    9.04253057    2.86010343    c      6.000     0
          1.07896561    9.49204041    1.70950243    c      6.000     0
         10.93798372   -0.25002412   -0.09622360    c      6.000     0
          8.79349774    4.71436263    0.00539748    c      6.000     0
         -7.38763364   -2.76143606    3.94433727    c      6.000     0
          4.49946951  -10.21531242    1.44448826    c      6.000     0
          6.50346167   -8.48308784    1.13850076    c      6.000     0
          5.37251367   -5.97566368    1.39171237    c      6.000     0
          2.24552645   -8.68896373    1.90049159    c      6.000     0
         -9.11795880    1.17281051    4.46647219    c      6.000     0
         -9.72642849   -1.42225897    4.54499804    c      6.000     0
         -6.44392543    1.29828776    3.78972988    c      6.000     0
         -2.64858329    6.95391686    2.64154711    c      6.000     0
         -0.05750637    7.17465606    2.05049136    c      6.000     0
         -3.13502245    4.24824871    2.89354394    c      6.000     0
          0.91138027    4.59259857    1.93626492    c      6.000     0
          4.71189499    2.25490360    1.17834679    c      6.000     0
          6.35705560   -1.57686881    1.07207405    c      6.000     0
          8.43088804    0.14865662    0.48387691    c      6.000     0
          7.37425492    2.59625619    0.53199549    c      6.000     0
         -7.33131149   20.44611981    5.36735227    h      1.000     0
         -7.03473732   17.14548498    5.96042578    h      1.000     0
         -4.40254066   19.15912335    6.41893208    h      1.000     0
          2.50331655   18.65561333    5.08195418    h      1.000     0
          4.32645682   17.68133139    2.43353931    h      1.000     0
          3.71218820   20.93587840    2.92129262    h      1.000     0
         17.01313900   10.05757599    1.32422592    h      1.000     0
         17.77570724   12.30931968   -1.05783302    h      1.000     0
         14.59672056   11.36159260   -0.61267494    h      1.000     0
         20.02164109    0.93496336    0.76345705    h      1.000     0
         22.80621402    2.26791069   -0.58260308    h      1.000     0
         20.68513463    4.18476304    1.19812575    h      1.000     0
         18.54617445  -16.70097285    0.98029287    h      1.000     0
         16.62623627  -14.14726816    2.04676257    h      1.000     0
         15.82390326  -17.28701538    2.87556639    h      1.000     0
          7.22563588  -21.30773569    1.66723960    h      1.000     0
         10.00230086  -20.95831655    3.52758352    h      1.000     0
          9.67116746  -23.58042815    1.44339166    h      1.000     0
         -8.35474629  -21.99805672    8.16318313    h      1.000     0
         -5.41569422  -21.88087497    6.57044924    h      1.000     0
         -7.23250866  -24.71546924    6.51960151    h      1.000     0
        -15.52173324  -15.60268328    6.91448430    h      1.000     0
        -16.68533286  -18.63536493    7.71722023    h      1.000     0
        -13.76346780  -17.56536077    9.00003946    h      1.000     0
        -23.05680377   -2.17336623   10.26646969    h      1.000     0
        -19.81757973   -3.03294571    9.94921387    h      1.000     0
        -20.62752796   -0.06600350   11.26700037    h      1.000     0
        -20.19701038    8.76013741    9.39119327    h      1.000     0
        -18.05915558    6.51710585   10.70663042    h      1.000     0
        -17.11798788    8.44271463    8.11993981    h      1.000     0
        -15.57761700  -16.52569222    2.23344327    h      1.000     0
        -17.08248042  -19.44202949    2.98828759    h      1.000     0
        -14.35454328  -19.39003744    1.01297718    h      1.000     0
         -7.25458262  -24.85250592    1.72122419    h      1.000     0
         -5.16054297  -22.24468768    1.81390573    h      1.000     0
         -7.95608193  -22.07266861   -0.04193140    h      1.000     0
         10.25804840  -19.85870761   -4.60999222    h      1.000     0
          9.57695369  -22.88944853   -3.30560548    h      1.000     0
          7.35626531  -20.37374360   -3.02691565    h      1.000     0
         16.49246352  -12.66711377   -2.47687190    h      1.000     0
         18.07046765  -15.38217443   -3.62893215    h      1.000     0
         15.03664980  -14.56817353   -4.83576160    h      1.000     0
         18.47805189    1.22255283   -6.13911684    h      1.000     0
         19.05893562   -0.84249126   -3.55315913    h      1.000     0
         21.61129167    0.76666582   -4.99809800    h      1.000     0
         14.13633118    9.93359221   -5.15602024    h      1.000     0
         16.47721897    8.04293498   -6.62059904    h      1.000     0
         17.21016861   11.19682037   -5.69500882    h      1.000     0
          2.40192956   17.72277199   -1.94532151    h      1.000     0
          2.09298645   21.05702739   -1.60117358    h      1.000     0
         -0.55137999   19.18503024   -2.52366417    h      1.000     0
         -7.23620246   17.52120618   -1.11669114    h      1.000     0
         -8.85867074   19.69447331    0.87704935    h      1.000     0
         -8.87607288   16.42570053    1.60212883    h      1.000     0
        -21.22913512    5.33352605    3.22050698    h      1.000     0
        -21.82788326    8.18625534    4.90905154    h      1.000     0
        -18.74735026    7.51889678    3.72566548    h      1.000     0
        -20.78680679   -4.05457221    5.37162845    h      1.000     0
        -23.91087505   -2.87388821    5.59258528    h      1.000     0
        -21.80187142   -1.62172777    3.28811962    h      1.000     0
        -23.41537636    2.31065343    4.97492132    h      1.000     0
        -24.85772520    1.22885149    7.77333762    h      1.000     0
        -21.74907924    3.81499688   10.32320541    h      1.000     0
        -23.63950379    5.70111282    8.33445274    h      1.000     0
        -12.44685271  -21.74677914    7.63629516    h      1.000     0
        -15.01245226  -22.54882523    5.67227135    h      1.000     0
        -12.05066258  -22.69870560    1.92755551    h      1.000     0
        -11.23803975  -24.91664849    4.27277268    h      1.000     0
         13.59082307  -22.75567467   -1.10449217    h      1.000     0
         14.10109974  -20.76095252    1.51022790    h      1.000     0
         14.29743688  -19.04304567   -4.02649666    h      1.000     0
         16.96832335  -19.70430508   -2.15123435    h      1.000     0
         20.85560219    9.58897845   -3.43366709    h      1.000     0
         20.55407302    7.88068482   -0.59350677    h      1.000     0
         19.77294183    5.63156036   -5.88126162    h      1.000     0
         22.54239068    5.28014554   -4.06606762    h      1.000     0
         -1.31517755   21.10248835    4.45805559    h      1.000     0
         -0.47078220   22.85987215    1.75903709    h      1.000     0
         -5.11789118   22.43146860    1.87035674    h      1.000     0
         -3.94225171   20.66387786   -0.69345637    h      1.000     0
         15.83040445   -0.25488144   -1.36912737    h      1.000     0
         12.12438090    8.32490151   -1.16776121    h      1.000     0
         -4.80655045  -18.56101145    3.18310077    h      1.000     0
        -12.65846473  -13.78153115    4.88420517    h      1.000     0
        -17.00865275   -3.09660168    6.12406413    h      1.000     0
        -14.83554969    5.99475277    6.00861297    h      1.000     0
         13.33280848  -11.53215900   -0.41678768    h      1.000     0
          6.30071637  -17.59288903    0.68125073    h      1.000     0
         -6.55864271   13.50488147    3.00134706    h      1.000     0
          2.59567310   14.29344046    1.27576284    h      1.000     0
         -2.38147089  -14.59569069    2.70780811    h      1.000     0
        -10.38769687   -9.70942269    4.40721408    h      1.000     0
          3.29386571  -14.10211736    1.48391005    h      1.000     0
        -12.58706971   -4.26093460    5.11950576    h      1.000     0
        -10.39994647    5.01385294    4.87606982    h      1.000     0
         10.46366378   -7.91839972    0.37983397    h      1.000     0
         -6.19341024    8.84543145    3.29643636    h      1.000     0
          3.08878558    9.63800164    1.27498652    h      1.000     0
         11.73019503   -2.15282106   -0.13938806    h      1.000     0
          7.95084602    6.59562883    0.04358593    h      1.000     0
 
       center of nuclear mass  :   -0.56540944   -2.26938484    2.23600498
       center of nuclear charge:   -0.56821829   -2.26999761    2.22264732

              +--------------------------------------------------+
              |               basis set information              |
              +--------------------------------------------------+

              we will work with the 1s 3p 5d 7f 9g ... basis set
              ...i.e. with spherical basis functions...

   type   atoms  prim   cont   basis
   ---------------------------------------------------------------------------
    gd       1    189    102   def2-TZVPP   [10s7p5d4f2g|14s14p10d8f3g]
    n       10     46     31   def2-TZVPP   [5s3p2d1f|11s6p2d1f]
    c      100     46     31   def2-TZVPP   [5s3p2d1f|11s6p2d1f]
    h      100     16     14   def2-TZVPP   [3s2p1d|5s2p1d]
   ---------------------------------------------------------------------------
   total:  211   6849   4912
   ---------------------------------------------------------------------------

   total number of primitive shells          :   97
   total number of contracted shells         : 1838
   total number of cartesian basis functions : 5591
   total number of SCF-basis functions       : 4912


 integral neglect threshold       :  0.60E-11
 integral storage threshold THIZE :  0.10E-04
 integral storage threshold THIME :         5

 number of unique ecp types :                     1
 RI-J AUXILIARY BASIS SET information:

              we will work with the 1s 3p 5d 7f 9g ... basis set
              ...i.e. with spherical basis functions...

   type   atoms  prim   cont   basis
   ---------------------------------------------------------------------------
    gd       1    263    200   def2-TZVPP   [14s7p6d6f5g2h2i|18s7p6d6f6g3h5i]
    n       10     70     49   def2-TZVPP   [6s4p3d1f1g|12s5p4d2f1g]
    c      100     70     49   def2-TZVPP   [6s4p3d1f1g|12s5p4d2f1g]
    h      100     16     11   def2-TZVPP   [3s1p1d|5s2p1d]
   ---------------------------------------------------------------------------
   total:  211   9563   6690
   ---------------------------------------------------------------------------

   total number of primitive shells          :  107
   total number of contracted shells         : 2192
   total number of cartesian basis functions : 8214
   total number of SCF-basis functions       : 6690


 symmetry group of the molecule :   c1 

 the group has the following generators :
   c1(z)

    1 symmetry operations found

 there are 1 real representations :   a   

 maximum number of shells which are related by symmetry :  1


    mo occupation :
   irrep   mo's   occupied
    a     4912      406
 
 number of basis functions   :                   4912
 number of occupied orbitals :                    406
 
  
           ------------------
           density functional
           ------------------
 PBE0 hybrid functional
 exchange:    3/4 (LDA+PBE) + 1/4 HF
 correlation: LDA (PW) + PBE

 iterations will be done with small grid
  
 spherical integration : Lebedev's spherical grid
 spherical gridsize    :                     3
    i.e. gridpoints    :                   302
 value for diffuse not defined
 radial integration    : Chebyshev 2nd kind (scaling 3)
 radial gridsize       :                     3
 integration cells     :                   211
 partition function    : becke
 partition sharpness   :                     3
  

 biggest AO integral is expected to be    24.126004431
  
           ------------------------
               RI-J - INFORMATION
           ------------------------
 Memory core needed for (P|Q) and Cholesky    171 MByte on GA
 Memory core minimum needed except          18 MByte 
  
 ****************************************
 Memory allocated for RI-J 18 MByte
 plus additional 171 MByte (pqmatrix)  (GA)
 ****************************************
                                            
      allocating par_xzuhag( 2919.01 MB)

          ------------------------
          nuclear repulsion energy  :   21487.2076072    
          ------------------------

  _________________________________
 |                                 |
 |         DFTD3 V3.1 Rev 0        |
 | S.Grimme, University Bonn       |
 |            June  2014           |
 |   see standalone version        |
 |       dftd3 -h for options      |
 |_________________________________|
 
 Please cite DFT-D3 work done with this code as:
 S. Grimme, J. Antony, S. Ehrlich and H. Krieg,
 J. Chem. Phys, 132 (2010), 154104.
 If used with BJ-damping cite also
 S. Grimme, S. Ehrlich and L. Goerigk,
 J. Comput. Chem. 32 (2011), 1456-1465
 For DFT-D2 the reference is
 S. Grimme, J. Comput. Chem., 27 (2006), 1787-1799
 
C6 coefficients used:
                     2  C6 for element                      1
Z=  1 CN= 0.912     C6(AA)=    3.03
Z=  1 CN= 0.000     C6(AA)=    7.59
                     5  C6 for element                      6
Z=  6 CN= 0.000     C6(AA)=   49.11
Z=  6 CN= 0.987     C6(AA)=   43.25
Z=  6 CN= 1.998     C6(AA)=   29.36
Z=  6 CN= 2.999     C6(AA)=   25.78
Z=  6 CN= 3.984     C6(AA)=   18.21
                     4  C6 for element                      7
Z=  7 CN= 0.000     C6(AA)=   25.27
Z=  7 CN= 0.994     C6(AA)=   22.12
Z=  7 CN= 2.014     C6(AA)=   19.68
Z=  7 CN= 2.990     C6(AA)=   15.58
                     2  C6 for element                     64
Z= 64 CN= 0.000     C6(AA)= 1891.67
Z= 64 CN= 2.873     C6(AA)=  595.36

#           XYZ [au]              R0(AA) [Ang.]  CN          C6(AA)     C8(AA)   C10(AA) [au]
  1  -0.51948  -2.25928   2.45749   gd  1.501  4.670       595.4    111461.2  25562415.3
  2   0.10721  -9.90676   2.26656   n   0.515  2.182        19.4       427.1     11540.9
  3  -3.13745  -6.63770   2.95146   n   0.515  2.998        15.7       345.5      9336.0
  4  -7.47900  -5.24786   3.89452   n   0.515  2.179        19.4       427.2     11544.4
  5   6.87167  -4.01200   1.09084   n   0.515  2.179        19.4       427.2     11545.1
  6   2.79837  -6.13024   1.85490   n   0.515  2.994        15.7       345.5      9337.5
  7  -5.41709  -1.09352   3.50179   n   0.515  2.990        15.7       345.6      9339.0
  8  -5.44687   3.56013   3.50476   n   0.515  2.180        19.4       427.1     11543.4
  9  -0.96968   2.84219   2.44593   n   0.515  3.000        15.7       345.4      9335.4
 10   3.32089   4.30768   1.38401   n   0.515  2.181        19.4       427.1     11542.3
 11   4.11819  -0.27795   1.47886   n   0.515  2.992        15.7       345.5      9338.2
 12 -21.93587  -2.33319   5.23389   c   0.590  4.090        18.3       528.3     18716.1
 13 -21.15805  -1.45367   9.81876   c   0.590  4.088        18.3       528.3     18717.1
 14 -18.70569   7.38592   8.93510   c   0.590  4.090        18.3       528.3     18716.1
 15 -20.43536   6.67553   4.58992   c   0.590  4.089        18.3       528.3     18717.0
 16 -15.24187 -18.52526   2.67694   c   0.590  4.089        18.3       528.3     18716.9
 17 -14.95523 -17.56038   7.29991   c   0.590  4.090        18.3       528.3     18716.2
 18  -7.34439 -22.64004   6.46815   c   0.590  4.089        18.3       528.3     18716.8
 19  -7.16383 -22.77575   1.74368   c   0.590  4.091        18.3       528.3     18716.0
 20   9.37830 -20.84128  -3.00740   c   0.590  4.089        18.3       528.3     18716.7
 21   9.28582 -21.55024   1.67090   c   0.590  4.090        18.3       528.3     18716.4
 22  16.58969 -16.10322   1.35364   c   0.590  4.089        18.3       528.3     18717.0
 23  16.20549 -14.61793  -3.12085   c   0.590  4.090        18.3       528.3     18716.2
 24  16.55795  10.68747  -0.60137   c   0.590  4.090        18.3       528.3     18716.2
 25  16.16204   9.48227  -5.16001   c   0.590  4.089        18.3       528.3     18716.7
 26  19.62126   0.95227  -4.42732   c   0.590  4.091        18.3       528.3     18716.1
 27  20.80021   2.62171  -0.16206   c   0.590  4.089        18.3       528.3     18716.8
 28   1.13151  19.23626  -1.31124   c   0.590  4.088        18.3       528.3     18717.2
 29   2.89087  19.03224   3.07727   c   0.590  4.090        18.3       528.3     18716.2
 30  -6.05357  18.81320   5.21017   c   0.590  4.088        18.3       528.3     18717.3
 31  -7.70383  17.96654   0.85693   c   0.590  4.091        18.3       528.3     18715.9
 32  17.01225   8.55643  -2.52765   c   0.590  4.098        18.3       528.2     18712.7
 33  19.33723   3.20984  -2.61584   c   0.590  4.098        18.3       528.2     18712.6
 34  20.48263   5.54019  -3.92600   c   0.590  4.135        18.2       527.8     18698.5
 35  19.86431   7.98423  -2.55503   c   0.590  4.134        18.2       527.8     18698.7
 36  -5.29155  18.39107   2.42689   c   0.590  4.098        18.3       528.2     18712.6
 37  -3.97119  20.76436   1.38599   c   0.590  4.135        18.2       527.8     18698.4
 38   0.44836  18.89048   1.50277   c   0.590  4.098        18.3       528.2     18712.6
 39  -1.29302  21.05110   2.37627   c   0.590  4.134        18.2       527.8     18698.6
 40 -13.56884 -18.78063   5.05329   c   0.590  4.098        18.3       528.2     18712.9
 41 -13.16550 -21.59127   5.68786   c   0.590  4.134        18.2       527.8     18698.7
 42 -11.34493 -22.87650   3.87891   c   0.590  4.134        18.2       527.8     18698.7
 43  -8.66314 -21.76036   4.01926   c   0.590  4.098        18.3       528.2     18712.6
 44  10.58619 -20.06756  -0.46665   c   0.590  4.097        18.3       528.2     18713.0
 45  13.40462 -20.78839  -0.45166   c   0.590  4.134        18.2       527.8     18698.9
 46  14.99049 -16.29574  -1.07917   c   0.590  4.098        18.3       528.2     18712.9
 47  15.00036 -19.03226  -2.06666   c   0.590  4.134        18.2       527.8     18698.8
 48 -23.04864   1.88084   6.97881   c   0.590  4.134        18.2       527.8     18698.7
 49 -22.14762   4.24979   8.32655   c   0.590  4.134        18.2       527.8     18698.7
 50 -21.12317  -0.29383   7.14269   c   0.590  4.097        18.3       528.2     18712.9
 51 -19.75699   5.37764   7.11243   c   0.590  4.098        18.3       528.2     18712.8
 52  11.79981 -12.89122  -0.18092   c   0.590  3.204        25.0       723.3     25625.0
 53  12.28694 -15.44837  -0.47590   c   0.590  3.249        24.7       714.7     25322.6
 54  10.25506 -17.20913  -0.12600   c   0.590  3.249        24.7       714.8     25323.1
 55   7.87304 -16.27941   0.44263   c   0.590  3.205        25.0       723.1     25619.6
 56  -6.55556 -17.53311   3.55462   c   0.590  3.205        25.0       723.1     25617.2
 57  -8.76362 -18.86561   4.01115   c   0.590  3.250        24.7       714.6     25318.7
 58 -11.03174 -17.47925   4.54218   c   0.590  3.249        24.7       714.7     25322.1
 59 -10.94014 -14.86065   4.51442   c   0.590  3.204        25.0       723.3     25625.0
 60 -15.34116   3.99546   6.04395   c   0.590  3.204        25.0       723.2     25621.3
 61 -17.80594   3.29959   6.59404   c   0.590  3.249        24.7       714.7     25321.2
 62 -18.44792   0.66604   6.57827   c   0.590  3.249        24.7       714.8     25324.2
 63 -16.55752  -1.08432   6.10267   c   0.590  3.204        25.0       723.2     25621.7
 64  15.49741   6.18185  -1.85138   c   0.590  3.250        24.7       714.6     25319.0
 65  12.97066   6.44437  -1.21151   c   0.590  3.205        25.0       723.1     25618.1
 66  16.56155   3.69057  -1.94428   c   0.590  3.250        24.7       714.6     25318.0
 67  -3.52888  16.09849   2.27238   c   0.590  3.250        24.7       714.6     25318.1
 68  -4.54185  13.70746   2.61910   c   0.590  3.204        25.0       723.1     25620.3
 69  -0.86380  16.33015   1.83920   c   0.590  3.250        24.7       714.6     25316.5
 70   0.57350  14.14764   1.65546   c   0.590  3.205        25.0       723.1     25619.3
 71  15.03831   1.64902  -1.33231   c   0.590  3.204        25.0       723.2     25622.9
 72  -2.18964  -9.06864   2.72583   c   0.590  3.441        22.5       651.6     23084.3
 73  -5.68998  -6.92432   3.46977   c   0.590  3.440        22.5       651.7     23088.8
 74  -4.16577 -10.95854   3.09905   c   0.590  3.365        23.6       681.5     24143.7
 75  -6.40478  -9.58982   3.57166   c   0.590  3.362        23.6       682.5     24181.5
 76  -4.12667 -13.56136   3.07387   c   0.590  3.173        25.2       727.8     25786.7
 77  -8.67049 -10.78778   4.03615   c   0.590  3.172        25.2       728.0     25792.4
 78  -6.42083 -14.86597   3.54433   c   0.590  3.232        24.8       718.1     25443.1
 79  -8.71025 -13.46977   4.03250   c   0.590  3.231        24.8       718.4     25451.7
 80   9.38359 -11.90924   0.39875   c   0.590  3.231        24.8       718.3     25450.3
 81   7.33408 -13.67767   0.71597   c   0.590  3.232        24.8       718.2     25445.0
 82  12.46179   1.88169  -0.66648   c   0.590  3.232        24.8       718.3     25448.3
 83  11.38106   4.38319  -0.61402   c   0.590  3.232        24.8       718.2     25445.1
 84 -12.13653  -2.24957   5.08186   c   0.590  3.172        25.2       728.0     25790.7
 85 -14.02748  -0.41155   5.57117   c   0.590  3.232        24.8       718.3     25448.4
 86 -13.39900   2.24003   5.51462   c   0.590  3.232        24.8       718.3     25447.0
 87 -10.89621   3.01408   4.94110   c   0.590  3.172        25.2       727.9     25789.8
 88  -0.43715  11.69188   1.93988   c   0.590  3.232        24.8       718.2     25445.8
 89  -3.09732  11.46423   2.49013   c   0.590  3.232        24.8       718.3     25447.4
 90   4.86380 -12.78588   1.25437   c   0.590  3.173        25.2       727.9     25787.5
 91   8.93149  -9.27539   0.62796   c   0.590  3.172        25.2       728.0     25791.9
 92  -4.18822   9.04253   2.86010   c   0.590  3.172        25.2       727.9     25790.5
 93   1.07897   9.49204   1.70950   c   0.590  3.173        25.2       727.9     25789.3
 94  10.93798  -0.25002  -0.09622   c   0.590  3.172        25.2       727.9     25789.9
 95   8.79350   4.71436   0.00540   c   0.590  3.173        25.2       727.9     25788.2
 96  -7.38763  -2.76144   3.94434   c   0.590  3.440        22.5       651.8     23094.3
 97   4.49947 -10.21531   1.44449   c   0.590  3.365        23.6       681.5     24146.1
 98   6.50346  -8.48309   1.13850   c   0.590  3.362        23.6       682.7     24186.6
 99   5.37251  -5.97566   1.39171   c   0.590  3.440        22.5       651.9     23094.8
100   2.24553  -8.68896   1.90049   c   0.590  3.440        22.5       651.6     23085.1
101  -9.11796   1.17281   4.46647   c   0.590  3.363        23.6       682.1     24166.1
102  -9.72643  -1.42226   4.54500   c   0.590  3.363        23.6       682.3     24172.7
103  -6.44393   1.29829   3.78973   c   0.590  3.440        22.5       651.7     23090.3
104  -2.64858   6.95392   2.64155   c   0.590  3.363        23.6       682.1     24165.8
105  -0.05751   7.17466   2.05049   c   0.590  3.364        23.6       681.9     24159.6
106  -3.13502   4.24825   2.89354   c   0.590  3.440        22.5       651.7     23087.9
107   0.91138   4.59260   1.93626   c   0.590  3.440        22.5       651.6     23086.2
108   4.71189   2.25490   1.17835   c   0.590  3.440        22.5       651.8     23091.0
109   6.35706  -1.57687   1.07207   c   0.590  3.440        22.5       651.9     23094.8
110   8.43089   0.14866   0.48388   c   0.590  3.363        23.6       682.4     24175.6
111   7.37425   2.59626   0.53200   c   0.590  3.364        23.6       681.8     24157.1
112  -7.33131  20.44612   5.36735   h   0.381  0.997         3.1        37.4       553.5
113  -7.03474  17.14548   5.96043   h   0.381  0.998         3.1        37.4       553.4
114  -4.40254  19.15912   6.41893   h   0.381  0.997         3.1        37.4       553.4
115   2.50332  18.65561   5.08195   h   0.381  0.997         3.1        37.4       553.4
116   4.32646  17.68133   2.43354   h   0.381  0.998         3.1        37.4       553.4
117   3.71219  20.93588   2.92129   h   0.381  0.997         3.1        37.4       553.4
118  17.01314  10.05758   1.32423   h   0.381  0.997         3.1        37.4       553.5
119  17.77571  12.30932  -1.05783   h   0.381  0.997         3.1        37.4       553.4
120  14.59672  11.36159  -0.61267   h   0.381  0.998         3.1        37.4       553.4
121  20.02164   0.93496   0.76346   h   0.381  0.998         3.1        37.4       553.4
122  22.80621   2.26791  -0.58260   h   0.381  0.997         3.1        37.4       553.5
123  20.68513   4.18476   1.19813   h   0.381  0.998         3.1        37.4       553.4
124  18.54617 -16.70097   0.98029   h   0.381  0.997         3.1        37.4       553.5
125  16.62624 -14.14727   2.04676   h   0.381  0.998         3.1        37.4       553.4
126  15.82390 -17.28702   2.87557   h   0.381  0.998         3.1        37.4       553.4
127   7.22564 -21.30774   1.66724   h   0.381  0.997         3.1        37.4       553.4
128  10.00230 -20.95832   3.52758   h   0.381  0.997         3.1        37.4       553.5
129   9.67117 -23.58043   1.44339   h   0.381  0.997         3.1        37.4       553.4
130  -8.35475 -21.99806   8.16318   h   0.381  0.998         3.1        37.4       553.4
131  -5.41569 -21.88087   6.57045   h   0.381  0.998         3.1        37.4       553.4
132  -7.23251 -24.71547   6.51960   h   0.381  0.997         3.1        37.4       553.5
133 -15.52173 -15.60268   6.91448   h   0.381  0.997         3.1        37.4       553.4
134 -16.68533 -18.63536   7.71722   h   0.381  0.997         3.1        37.4       553.4
135 -13.76347 -17.56536   9.00004   h   0.381  0.997         3.1        37.4       553.5
136 -23.05680  -2.17337  10.26647   h   0.381  0.997         3.1        37.4       553.5
137 -19.81758  -3.03295   9.94921   h   0.381  0.998         3.1        37.4       553.4
138 -20.62753  -0.06600  11.26700   h   0.381  0.998         3.1        37.4       553.4
139 -20.19701   8.76014   9.39119   h   0.381  0.997         3.1        37.4       553.4
140 -18.05916   6.51711  10.70663   h   0.381  0.997         3.1        37.4       553.5
141 -17.11799   8.44271   8.11994   h   0.381  0.998         3.1        37.4       553.4
142 -15.57762 -16.52569   2.23344   h   0.381  0.998         3.1        37.4       553.4
143 -17.08248 -19.44203   2.98829   h   0.381  0.997         3.1        37.4       553.5
144 -14.35454 -19.39004   1.01298   h   0.381  0.998         3.1        37.4       553.4
145  -7.25458 -24.85251   1.72122   h   0.381  0.997         3.1        37.4       553.4
146  -5.16054 -22.24469   1.81391   h   0.381  0.998         3.1        37.4       553.4
147  -7.95608 -22.07267  -0.04193   h   0.381  0.997         3.1        37.4       553.4
148  10.25805 -19.85871  -4.60999   h   0.381  0.997         3.1        37.4       553.4
149   9.57695 -22.88945  -3.30561   h   0.381  0.997         3.1        37.4       553.5
150   7.35627 -20.37374  -3.02692   h   0.381  0.998         3.1        37.4       553.4
151  16.49246 -12.66711  -2.47687   h   0.381  0.997         3.1        37.4       553.4
152  18.07047 -15.38217  -3.62893   h   0.381  0.997         3.1        37.4       553.4
153  15.03665 -14.56817  -4.83576   h   0.381  0.997         3.1        37.4       553.4
154  18.47805   1.22255  -6.13912   h   0.381  0.997         3.1        37.4       553.5
155  19.05894  -0.84249  -3.55316   h   0.381  0.998         3.1        37.4       553.4
156  21.61129   0.76667  -4.99810   h   0.381  0.997         3.1        37.4       553.4
157  14.13633   9.93359  -5.15602   h   0.381  0.998         3.1        37.4       553.4
158  16.47722   8.04293  -6.62060   h   0.381  0.998         3.1        37.4       553.4
159  17.21017  11.19682  -5.69501   h   0.381  0.997         3.1        37.4       553.5
160   2.40193  17.72277  -1.94532   h   0.381  0.998         3.1        37.4       553.4
161   2.09299  21.05703  -1.60117   h   0.381  0.997         3.1        37.4       553.5
162  -0.55138  19.18503  -2.52366   h   0.381  0.998         3.1        37.4       553.4
163  -7.23620  17.52121  -1.11669   h   0.381  0.997         3.1        37.4       553.5
164  -8.85867  19.69447   0.87705   h   0.381  0.997         3.1        37.4       553.4
165  -8.87607  16.42570   1.60213   h   0.381  0.997         3.1        37.4       553.4
166 -21.22914   5.33353   3.22051   h   0.381  0.998         3.1        37.4       553.4
167 -21.82788   8.18626   4.90905   h   0.381  0.997         3.1        37.4       553.5
168 -18.74735   7.51890   3.72567   h   0.381  0.998         3.1        37.4       553.4
169 -20.78681  -4.05457   5.37163   h   0.381  0.997         3.1        37.4       553.4
170 -23.91088  -2.87389   5.59259   h   0.381  0.997         3.1        37.4       553.4
171 -21.80187  -1.62173   3.28812   h   0.381  0.997         3.1        37.4       553.4
172 -23.41538   2.31065   4.97492   h   0.381  1.003         3.1        37.3       553.0
173 -24.85773   1.22885   7.77334   h   0.381  1.002         3.1        37.4       553.1
174 -21.74908   3.81500  10.32321   h   0.381  1.003         3.1        37.3       553.0
175 -23.63950   5.70111   8.33445   h   0.381  1.002         3.1        37.4       553.1
176 -12.44685 -21.74678   7.63630   h   0.381  1.003         3.1        37.3       553.0
177 -15.01245 -22.54883   5.67227   h   0.381  1.002         3.1        37.4       553.1
178 -12.05066 -22.69871   1.92756   h   0.381  1.003         3.1        37.3       553.0
179 -11.23804 -24.91665   4.27277   h   0.381  1.002         3.1        37.4       553.1
180  13.59082 -22.75567  -1.10449   h   0.381  1.002         3.1        37.4       553.1
181  14.10110 -20.76095   1.51023   h   0.381  1.003         3.1        37.3       553.0
182  14.29744 -19.04305  -4.02650   h   0.381  1.003         3.1        37.3       553.0
183  16.96832 -19.70431  -2.15123   h   0.381  1.002         3.1        37.4       553.1
184  20.85560   9.58898  -3.43367   h   0.381  1.002         3.1        37.4       553.1
185  20.55407   7.88068  -0.59351   h   0.381  1.003         3.1        37.3       553.0
186  19.77294   5.63156  -5.88126   h   0.381  1.003         3.1        37.3       553.0
187  22.54239   5.28015  -4.06607   h   0.381  1.002         3.1        37.4       553.1
188  -1.31518  21.10249   4.45806   h   0.381  1.003         3.1        37.3       553.0
189  -0.47078  22.85987   1.75904   h   0.381  1.002         3.1        37.4       553.1
190  -5.11789  22.43147   1.87036   h   0.381  1.002         3.1        37.4       553.1
191  -3.94225  20.66388  -0.69346   h   0.381  1.003         3.1        37.3       553.0
192  15.83040  -0.25488  -1.36913   h   0.381  1.005         3.1        37.3       552.9
193  12.12438   8.32490  -1.16776   h   0.381  1.005         3.1        37.3       552.9
194  -4.80655 -18.56101   3.18310   h   0.381  1.005         3.1        37.3       552.9
195 -12.65846 -13.78153   4.88421   h   0.381  1.005         3.1        37.3       552.9
196 -17.00865  -3.09660   6.12406   h   0.381  1.005         3.1        37.3       552.9
197 -14.83555   5.99475   6.00861   h   0.381  1.005         3.1        37.3       552.9
198  13.33281 -11.53216  -0.41679   h   0.381  1.005         3.1        37.3       552.9
199   6.30072 -17.59289   0.68125   h   0.381  1.005         3.1        37.3       552.9
200  -6.55864  13.50488   3.00135   h   0.381  1.005         3.1        37.3       552.9
201   2.59567  14.29344   1.27576   h   0.381  1.005         3.1        37.3       552.9
202  -2.38147 -14.59569   2.70781   h   0.381  1.003         3.1        37.3       553.0
203 -10.38770  -9.70942   4.40721   h   0.381  1.003         3.1        37.3       553.0
204   3.29387 -14.10212   1.48391   h   0.381  1.003         3.1        37.3       553.0
205 -12.58707  -4.26093   5.11951   h   0.381  1.003         3.1        37.3       553.0
206 -10.39995   5.01385   4.87607   h   0.381  1.003         3.1        37.3       553.0
207  10.46366  -7.91840   0.37983   h   0.381  1.003         3.1        37.3       553.0
208  -6.19341   8.84543   3.29644   h   0.381  1.003         3.1        37.3       553.0
209   3.08879   9.63800   1.27499   h   0.381  1.003         3.1        37.3       553.0
210  11.73020  -2.15282  -0.13939   h   0.381  1.003         3.1        37.3       553.0
211   7.95085   6.59563   0.04359   h   0.381  1.003         3.1        37.3       553.0

molecular C6(AA) [au] =    499657.32

           DFT-D V3(BJ)
 DF pbe0                                              
 parameters
 s6       :    1.0000
 s8       :    1.2177
 a1       :    0.4145
 a2       :    4.8593
 k1-k3    :   16.0000    1.3333   -4.0000
 
 Edisp /kcal,au:  -191.1593 -0.30463176

 E6    /kcal :  -119.8394
 E8    /kcal :   -71.3200
 % E8        : 37.31
 nuclear repulsion energy                  =   21487.207607166
 empirical dispersive energy correction    =      -0.304631764
 nuclear repulsion + dispersion correction =   21486.902975402


         -----------------
         -S,T+V- integrals
         -----------------

 1e-integrals will be neglected if expon. factor < 0.597739E-12


          ----------------
          -ecp-  integrals
          ----------------
 
   Difference densities algorithm switched on.
   The maximal number of linear combinations of
   difference densities is                    20 .

 DIIS switched on: error vector is FDS-SDF
 Max. Iterations for DIIS is     :   4
 DIIS matrix (see manual) 
    Scaling factor of diagonals  :  1.200
    threshold for scaling factor :  0.000

 scf convergence criterion : increment of total energy < .1000000D-05
                  and increment of one-electron energy < .1000000D-02

  MOs are in ASCII format !


 closed shell shift switched on 
 all occupied orbitals are shifted by    0.05000


 reading orbital data $uhfmo_alpha  from file alpha
 orbital characterization : scfconv=6

 reading orbital data $uhfmo_beta  from file beta
 orbital characterization : scfconv=6
 mo-orthogonalization by Cholesky decomposition
 mo-orthogonalization by Cholesky decomposition

 DSCF restart information will be dumped onto file alpha


 Starting SCF iterations

          Overall gridpoints after grid construction =        270859

 ITERATION  ENERGY          1e-ENERGY        2e-ENERGY     NORM[dD(SAO)]  TOL
   1  -5180.9669051313    -50191.943543     23524.073663    0.000D+00 0.596D-11
                            Exc = -525.335945501     Coul =  24215.2364199    
                            exK = -165.826811746    
                         Ntotal = 806.00699681      Nspin = 6.0000090915    
                             Na = 406.00350295         Nb = 400.00349386    
                            current damping = 0.700
 
          max. resid. norm for Fia-block=  3.685D-01 for orbital    400a    beta 
          max. resid. fock norm         =  4.934D-01 for orbital   4912a    beta 

 ITERATION  ENERGY          1e-ENERGY        2e-ENERGY     NORM[dD(SAO)]  TOL
   2  -5180.9244286849    -50179.725398     23511.897994    0.191D+01 0.387D-11
                            Exc = -523.741064183      Eck =  24035.6390582    
                         Ntotal = 806.00671218      Nspin = 5.9999761764    
                             Na = 406.00334418         Nb = 400.00336800    
                            current damping = 0.700
 
          Norm of current diis error:  1.1058    
          max. resid. norm for Fia-block=  7.382D-02 for orbital    400a    beta 
          max. resid. fock norm         =  6.100D-01 for orbital   4771a    alpha

 ITERATION  ENERGY          1e-ENERGY        2e-ENERGY     NORM[dD(SAO)]  TOL
   3  -5181.0287249265    -50184.922748     23516.991048    0.726D+00 0.335D-11
                            Exc = -524.184847375      Eck =  24041.1758950    
                         Ntotal = 806.00656029      Nspin = 5.9999908693    
                             Na = 406.00327558         Nb = 400.00328471    
                            current damping = 0.650
 
          Norm of current diis error: 0.52506    
          max. resid. norm for Fia-block=  1.174D-01 for orbital    400a    beta 
          max. resid. fock norm         =  6.995D-01 for orbital   4755a    alpha

 ITERATION  ENERGY          1e-ENERGY        2e-ENERGY     NORM[dD(SAO)]  TOL
   4  -5181.0218192546    -50193.759215     23525.834421    0.389D+00 0.257D-11
                            Exc = -525.475079835      Eck =  24051.3095006    
                         Ntotal = 806.00646373      Nspin = 6.0000072025    
                             Na = 406.00323547         Nb = 400.00322826    
                            current damping = 0.700
 
          Norm of current diis error: 0.81428    
          max. resid. norm for Fia-block=  2.327D-02 for orbital    120a    alpha
          max. resid. fock norm         =  2.219D-01 for orbital   4539a    alpha

 ITERATION  ENERGY          1e-ENERGY        2e-ENERGY     NORM[dD(SAO)]  TOL
   5  -5180.9854864584    -50195.545628     23527.657166    0.693D-01 0.235D-11
                            Exc = -525.747402122      Eck =  24053.4045680    
                         Ntotal = 806.00642317      Nspin = 6.0000081472    
                             Na = 406.00321566         Nb = 400.00320751    
                            current damping = 0.750
 
          Norm of current diis error:  1.0843    
          max. resid. norm for Fia-block=  1.085D-02 for orbital    399a    beta 
          max. resid. fock norm         =  4.293D-02 for orbital   4412a    alpha
          mo-orthogonalization: Cholesky decomposition

 ITERATION  ENERGY          1e-ENERGY        2e-ENERGY     NORM[dD(SAO)]  TOL
   6  -5180.9937160780    -50195.378803     23527.482112    0.342D-01 0.221D-11
                            Exc = -525.712919499      Eck =  24053.1950310    
                         Ntotal = 806.00640735      Nspin = 6.0000080889    
                             Na = 406.00320772         Nb = 400.00319963    
                            current damping = 0.800
 
          Norm of current diis error:  1.0226    
          max. resid. norm for Fia-block=  1.257D-02 for orbital    399a    beta 
          max. resid. fock norm         =  1.709D-02 for orbital   4912a    beta 

 ITERATION  ENERGY          1e-ENERGY        2e-ENERGY     NORM[dD(SAO)]  TOL
   7  -5181.0062901760    -50195.024136     23527.114871    0.363D-02 0.209D-11
                            Exc = -525.638927381      Eck =  24052.7537981    
                         Ntotal = 806.00640043      Nspin = 6.0000080502    
                             Na = 406.00320424         Nb = 400.00319619    
                            current damping = 0.650
 
          Norm of current diis error: 0.93259    
          max. resid. norm for Fia-block=  2.771D-01 for orbital    399a    beta 
          max. resid. fock norm         =  8.687D-01 for orbital   4381a    alpha

 ITERATION  ENERGY          1e-ENERGY        2e-ENERGY     NORM[dD(SAO)]  TOL
   8  -5180.9343360454    -50180.587260     23512.749949    0.176D+00 0.188D-11
                            Exc = -523.819754906      Eck =  24036.5697034    
                         Ntotal = 806.00641826      Nspin = 5.9999884385    
                             Na = 406.00320335         Nb = 400.00321491    
                            current damping = 0.700
 
          Norm of current diis error:  1.1358    
          max. resid. norm for Fia-block=  4.819D-02 for orbital    353a    alpha
          max. resid. fock norm         =  2.798D-01 for orbital   4751a    alpha

 ITERATION  ENERGY          1e-ENERGY        2e-ENERGY     NORM[dD(SAO)]  TOL
   9  -5181.0028934623    -50183.694095     23515.788227    0.466D-01 0.137D-11
                            Exc = -524.069784278      Eck =  24039.8580109    
                         Ntotal = 806.00640199      Nspin = 5.9999930443    
                             Na = 406.00319752         Nb = 400.00320447    
                            current damping = 0.750
 
          Norm of current diis error: 0.72456    
          max. resid. norm for Fia-block=  4.835D-02 for orbital    400a    beta 
          max. resid. fock norm         =  2.723D-01 for orbital   4669a    alpha

 ITERATION  ENERGY          1e-ENERGY        2e-ENERGY     NORM[dD(SAO)]  TOL
  10  -5181.0494162204    -50186.690822     23518.738430    0.168D-01 0.127D-11
                            Exc = -524.398054502      Eck =  24043.1364850    
                         Ntotal = 806.00639175      Nspin = 5.9999997148    
                             Na = 406.00319573         Nb = 400.00319602    
                            current damping = 0.650
 
          Norm of current diis error: 0.38143    
          max. resid. norm for Fia-block=  7.052D-02 for orbital    400a    beta 
          max. resid. fock norm         =  2.216D-01 for orbital   4563a    alpha
          mo-orthogonalization: Cholesky decomposition

 ITERATION  ENERGY          1e-ENERGY        2e-ENERGY     NORM[dD(SAO)]  TOL
  11  -5181.0683518596    -50190.402227     23522.430900    0.157D-01 0.131D-11
                            Exc = -524.943640161      Eck =  24047.3745397    
                         Ntotal = 806.00638417      Nspin = 6.0000062964    
                             Na = 406.00319523         Nb = 400.00318893    
                            current damping = 0.550
 
          Norm of current diis error: 0.16204    
          max. resid. norm for Fia-block=  1.028D-02 for orbital    399a    beta 
          max. resid. fock norm         =  5.277D-02 for orbital   4441a    alpha

 ITERATION  ENERGY          1e-ENERGY        2e-ENERGY     NORM[dD(SAO)]  TOL
  12  -5181.0668154865    -50190.670830     23522.701040    0.976D-02 0.136D-11
                            Exc = -525.003948020      Eck =  24047.7049876    
                         Ntotal = 806.00638162      Nspin = 6.0000077155    
                             Na = 406.00319467         Nb = 400.00318695    
                            current damping = 0.600
 
          Norm of current diis error: 0.20730    
          max. resid. norm for Fia-block=  5.999D-03 for orbital    399a    beta 
          max. resid. fock norm         =  1.326D-02 for orbital   4478a    alpha

 ITERATION  ENERGY          1e-ENERGY        2e-ENERGY     NORM[dD(SAO)]  TOL
  13  -5181.0654896556    -50190.830772     23522.862307    0.250D-02 0.136D-11
                            Exc = -525.040626931      Eck =  24047.9029336    
                         Ntotal = 806.00638055      Nspin = 6.0000084891    
                             Na = 406.00319452         Nb = 400.00318603    
                            current damping = 0.650
 
          Norm of current diis error: 0.23747    
          max. resid. norm for Fia-block=  5.205D-03 for orbital    399a    beta 
          max. resid. fock norm         =  1.444D-02 for orbital   4499a    alpha

 ITERATION  ENERGY          1e-ENERGY        2e-ENERGY     NORM[dD(SAO)]  TOL
  14  -5181.0659476511    -50190.680632     23522.711708    0.662D-03 0.135D-11
                            Exc = -525.031370327      Eck =  24047.7430788    
                         Ntotal = 806.00638006      Nspin = 6.0000089038    
                             Na = 406.00319448         Nb = 400.00318558    
                            current damping = 0.700
 
          Norm of current diis error: 0.21788    
          max. resid. norm for Fia-block=  3.098D-02 for orbital    399a    beta 
          max. resid. fock norm         =  9.645D-02 for orbital   4502a    alpha

 ITERATION  ENERGY          1e-ENERGY        2e-ENERGY     NORM[dD(SAO)]  TOL
  15  -5181.0683769287    -50188.299796     23520.328444    0.607D-02 0.129D-11
                            Exc = -524.725784325      Eck =  24045.0542279    
                         Ntotal = 806.00638126      Nspin = 6.0000078344    
                             Na = 406.00319455         Nb = 400.00318671    
                            current damping = 0.600
 
          Norm of current diis error: 0.15652    
          max. resid. norm for Fia-block=  1.001D-02 for orbital    120a    alpha
          max. resid. fock norm         =  7.828D-02 for orbital   4556a    alpha
          mo-orthogonalization: Cholesky decomposition

 ITERATION  ENERGY          1e-ENERGY        2e-ENERGY     NORM[dD(SAO)]  TOL
  16  -5181.0691741198    -50188.707503     23520.735354    0.753D-02 0.125D-11
                            Exc = -524.741166326      Eck =  24045.4765200    
                         Ntotal = 806.00637933      Nspin = 6.0000087120    
                             Na = 406.00319402         Nb = 400.00318531    
                            current damping = 0.650
 
          Norm of current diis error: 0.10089    
          max. resid. norm for Fia-block=  8.185D-03 for orbital    400a    beta 
          max. resid. fock norm         =  9.583D-03 for orbital   4586a    alpha

 ITERATION  ENERGY          1e-ENERGY        2e-ENERGY     NORM[dD(SAO)]  TOL
  17  -5181.0700718030    -50189.296409     23521.323362    0.425D-02 0.123D-11
                            Exc = -524.817929412      Eck =  24046.1412915    
                         Ntotal = 806.00637815      Nspin = 6.0000098550    
                             Na = 406.00319400         Nb = 400.00318415    
                            current damping = 0.550
 
          Norm of current diis error: 0.14871E-01
          max. resid. norm for Fia-block=  2.813D-03 for orbital    400a    beta 
          max. resid. fock norm         =  5.976D-03 for orbital   4579a    alpha

 ITERATION  ENERGY          1e-ENERGY        2e-ENERGY     NORM[dD(SAO)]  TOL
  18  -5181.0700960355    -50189.451915     23521.478843    0.333D-02 0.121D-11
                            Exc = -524.842413915      Eck =  24046.3212573    
                         Ntotal = 806.00637717      Nspin = 6.0000108133    
                             Na = 406.00319399         Nb = 400.00318318    
                            current damping = 0.400
 
          Norm of current diis error: 0.10521E-01
          max. resid. norm for Fia-block=  1.023D-03 for orbital    120a    alpha
          max. resid. fock norm         =  1.033D-02 for orbital   4584a    alpha

 ITERATION  ENERGY          1e-ENERGY        2e-ENERGY     NORM[dD(SAO)]  TOL
  19  -5181.0701068936    -50189.427067     23521.453984    0.168D-02 0.118D-11
                            Exc = -524.838772140      Eck =  24046.2927565    
                         Ntotal = 806.00637639      Nspin = 6.0000115992    
                             Na = 406.00319400         Nb = 400.00318240    
                            current damping = 0.450
 
          Norm of current diis error: 0.58892E-02
          max. resid. norm for Fia-block=  6.234D-04 for orbital    400a    beta 
          max. resid. fock norm         =  4.863D-03 for orbital   4590a    alpha

 ITERATION  ENERGY          1e-ENERGY        2e-ENERGY     NORM[dD(SAO)]  TOL
  20  -5181.0701150482    -50189.407986     23521.434896    0.634D-01 0.170D-11
                            Exc = -524.836436125      Eck =  24046.2713321    
                         Ntotal = 806.00637572      Nspin = 6.0000122937    
                             Na = 406.00319401         Nb = 400.00318171    
                            current damping = 0.300
 
          Norm of current diis error: 0.30361E-02
          max. resid. norm for Fia-block=  5.902D-04 for orbital    400a    beta 
          max. resid. fock norm         =  5.098D-03 for orbital   2019a    beta 
          mo-orthogonalization: Cholesky decomposition

 ITERATION  ENERGY          1e-ENERGY        2e-ENERGY     NORM[dD(SAO)]  TOL
  21  -5181.0701179108    -50189.394922     23521.421829    0.206D-01 0.171D-11
                            Exc = -524.834291381      Eck =  24046.2561200    
                         Ntotal = 806.00637491      Nspin = 6.0000130938    
                             Na = 406.00319400         Nb = 400.00318091    
                            current damping = 0.150
 
          Norm of current diis error: 0.10998E-02
          max. resid. norm for Fia-block=  4.664D-04 for orbital    400a    beta 
          max. resid. fock norm         =  1.200D-03 for orbital   2019a    beta 

 ITERATION  ENERGY          1e-ENERGY        2e-ENERGY     NORM[dD(SAO)]  TOL
  22  -5181.0701228332    -50189.392764     23521.419666    0.206D-01 0.596D-11
                            Exc = -524.834225634     Coul =  24212.1120829    
                            exK = -165.858191364    
                         Ntotal = 806.00637415      Nspin = 6.0000138635    
                             Na = 406.00319401         Nb = 400.00318014    
                            current damping = 0.050
 
          Norm of current diis error: 0.10783E-02
          max. resid. norm for Fia-block=  3.449D-04 for orbital    400a    beta 
          max. resid. fock norm         =  1.507D-03 for orbital   1666a    beta 

 ITERATION  ENERGY          1e-ENERGY        2e-ENERGY     NORM[dD(SAO)]  TOL
  23  -5181.0701238285    -50189.397031     23521.423932    0.280D-01 0.378D-11
                            Exc = -524.834485571      Eck =  24046.2584173    
                         Ntotal = 806.00637357      Nspin = 6.0000145029    
                             Na = 406.00319404         Nb = 400.00317953    
                            current damping = 0.100
 
          Norm of current diis error: 0.97028E-03
          max. resid. norm for Fia-block=  4.686D-04 for orbital    400a    beta 
          max. resid. fock norm         =  2.031D-03 for orbital   1301a    alpha

 ITERATION  ENERGY          1e-ENERGY        2e-ENERGY     NORM[dD(SAO)]  TOL
  24  -5181.0701249850    -50189.390353     23521.417253    0.908D-02 0.229D-11
                            Exc = -524.833705969      Eck =  24046.2509589    
                         Ntotal = 806.00637280      Nspin = 6.0000153173    
                             Na = 406.00319406         Nb = 400.00317874    
                            current damping = 0.150
 
          Norm of current diis error: 0.77256E-03
          max. resid. norm for Fia-block=  2.980D-04 for orbital    400a    beta 
          max. resid. fock norm         =  1.169D-03 for orbital   1665a    alpha

 ITERATION  ENERGY          1e-ENERGY        2e-ENERGY     NORM[dD(SAO)]  TOL
  25  -5181.0701273118    -50189.399737     23521.426634    0.814D-02 0.229D-11
                            Exc = -524.834954399      Eck =  24046.2615883    
                         Ntotal = 806.00637235      Nspin = 6.0000157891    
                             Na = 406.00319407         Nb = 400.00317828    
                            current damping = 0.200
 
          Norm of current diis error: 0.10971E-02
          max. resid. norm for Fia-block=  3.288D-04 for orbital    400a    beta 
          max. resid. fock norm         =  1.549D-03 for orbital   1665a    alpha
          mo-orthogonalization: Cholesky decomposition

 ITERATION  ENERGY          1e-ENERGY        2e-ENERGY     NORM[dD(SAO)]  TOL
  26  -5181.0701289938    -50189.389510     23521.416405    0.465D-02 0.219D-11
                            Exc = -524.833549729      Eck =  24046.2499551    
                         Ntotal = 806.00637189      Nspin = 6.0000162865    
                             Na = 406.00319409         Nb = 400.00317780    
                            current damping = 0.250
 
          Norm of current diis error: 0.71965E-03
          max. resid. norm for Fia-block=  2.027D-04 for orbital    400a    beta 
          max. resid. fock norm         =  6.616D-04 for orbital   1666a    beta 

 ITERATION  ENERGY          1e-ENERGY        2e-ENERGY     NORM[dD(SAO)]  TOL
  27  -5181.0701285174    -50189.397387     23521.424283    0.738D-02 0.212D-11
                            Exc = -524.834444773      Eck =  24046.2587279    
                         Ntotal = 806.00637163      Nspin = 6.0000165625    
                             Na = 406.00319410         Nb = 400.00317753    
                            current damping = 0.300
 
          Norm of current diis error: 0.54831E-03
          max. resid. norm for Fia-block=  1.738D-04 for orbital    400a    beta 
          max. resid. fock norm         =  5.973D-04 for orbital   1666a    beta 

 ENERGY CONVERGED !

          Overall gridpoints after grid construction =        992756

 ITERATION  ENERGY          1e-ENERGY        2e-ENERGY     NORM[dD(SAO)]  TOL
  28  -5181.0767625723    -50189.396037     23521.416299    0.327D-02 0.197D-11
                            Exc = -524.841008596      Eck =  24046.2573074    
                         Ntotal = 805.99950483      Nspin = 5.9999940111    
                             Na = 405.99974942         Nb = 399.99975541    
                            current damping = 0.350
 
          Norm of current diis error: 0.43813E-03
          max. resid. norm for Fia-block=  1.407D-04 for orbital    400a    beta 
          max. resid. fock norm         =  7.348D-04 for orbital   1304a    beta 

 End of SCF iterations

   convergence criteria satisfied after    28 iterations


                  ------------------------------------------ 
                 |  total energy      =  -5181.07676257225  |
                  ------------------------------------------ 
                 :  kinetic energy    =   4917.82380530091  :
                 :  potential energy  = -10098.90056787316  :
                 :  virial theorem    =      1.94918952771  :
                 :  wavefunction norm =      1.00000000000  :
                  .......................................... 


 orbitals $uhfmo_beta  will be written to file beta

 orbitals $uhfmo_alpha  will be written to file alpha
 
 alpha: 

    irrep                402a        403a        404a        405a        406a   
 eigenvalues H         -0.22445    -0.22445    -0.22196    -0.22190    -0.16504
            eV          -6.1077     -6.1076     -6.0399     -6.0382     -4.4910
 occupation              1.0000      1.0000      1.0000      1.0000      1.0000 

    irrep                407a        408a        409a        410a        411a   
 eigenvalues H         -0.10963    -0.10957    -0.06060    -0.06055    -0.05231
            eV          -2.9831     -2.9816     -1.6490     -1.6476     -1.4235
 
 beta:  

    irrep                396a        397a        398a        399a        400a   
 eigenvalues H         -0.22447    -0.22195    -0.22190    -0.16497    -0.16055
            eV          -6.1082     -6.0397     -6.0381     -4.4890     -4.3689
 occupation              1.0000      1.0000      1.0000      1.0000      1.0000 

    irrep                401a        402a        403a        404a        405a   
 eigenvalues H         -0.10950    -0.10945    -0.06091    -0.06086    -0.05260
            eV          -2.9796     -2.9782     -1.6575     -1.6560     -1.4313
 

                                             _ _ _ 
  IRREP     alpha occ.     beta occ.      tr(D*D-D)


 a        406.00000000   400.00000000    -2.01804429

   -------------------------------------------------

   sum    406.00000000   400.00000000    -2.01804429

 <S*S>    13.03608859

 
 
 
 ==============================================================================
                           electrostatic moments
 ==============================================================================

 reference point for electrostatic moments:    0.00000   0.00000   0.00000

 
              nuc           elec       ->  total
 ------------------------------------------------------------------------------
                          charge      
 ------------------------------------------------------------------------------
         806.000000    -806.000000      -0.000000
 a-b                                     6.000000
 
 ------------------------------------------------------------------------------
                       dipole moment  
 ------------------------------------------------------------------------------
   x    -459.348610     459.306008      -0.042602
   y   -1829.918176    1829.920399       0.002223
   z    1784.878109   -1785.056599      -0.178491
 
   | dipole moment | =     0.1835 a.u. =     0.4665 debye 
 
 ------------------------------------------------------------------------------
                     quadrupole moment
 ------------------------------------------------------------------------------
  xx  108579.171284 -109010.058083    -430.886798
  yy  118746.562954 -119172.046848    -425.483894
  zz   11354.388910  -11867.138990    -512.750080
  xy     634.401268    -634.827447      -0.426179
  xz  -26339.632995   26318.657655     -20.975340
  yz   -5503.140485    5502.203333      -0.937152
 
     1/3  trace=    -456.373591
     anisotropy=      92.174628
 
 ==============================================================================
 

    ridft profiling
  --------------------------------------------------------------------
             module   cpu total (s)       %  wall total (s)       %

               RIDFT        132097.9  100.00        132416.6  100.00
         Ridft_b_scf            54.3    0.04            54.4    0.04
        b_scf_prelim             0.0    0.00             0.0    0.00
        b_scf_molinp             0.0    0.00             0.0    0.00
         b_scf_init0             0.0    0.00             0.0    0.00
        b_scf_auxbas             0.0    0.00             0.0    0.00
      b_scf_symmetry             0.0    0.00             0.0    0.00
         b_scf_cosmo             0.0    0.00             0.0    0.00
        b_scf_params             3.5    0.00             3.5    0.00
          b_scf_ri-j            12.0    0.01            12.0    0.01
    b_scf_ri-j_auxpq            11.9    0.01            12.0    0.01
     ri-j_auxpq_chol             1.5    0.00             1.5    0.00
         b_scf_1elec             4.5    0.00             4.5    0.00
       b_scf_moinput            34.2    0.03            34.3    0.03
     prepare.moinput            19.1    0.01            19.2    0.01
     moinput_orthmos            14.8    0.01            14.8    0.01
    b_scf_dft-dstmax             0.0    0.00             0.0    0.00
           Ridft_scf        132043.3   99.96        132361.8   99.96
          Scf_b_loop             0.8    0.00             0.8    0.00
                noga             0.0    0.00             0.0    0.00
            Scf_loop        132012.7   99.94        132325.8   99.93
     scf_loop_mkdmat           195.9    0.15           196.4    0.15
       scf_loop_ri-j          9452.9    7.16          9475.3    7.16
    ri-j_near_lpdrc1          6184.1    4.68          6198.8    4.68
    ri-j_near_lpdrc2          3250.1    2.46          3257.9    2.46
       scf_loop_ex-K        117989.3   89.32        118269.2   89.32
         scf_loop_k1        116378.8   88.10        116654.8   88.10
     scf_loop_symcar           134.4    0.10           134.7    0.10
      scf_loop_dfmat            21.5    0.02            21.6    0.02
        scf_loop_dft          2400.5    1.82          2406.2    1.82
        dft_grid_con            18.9    0.01            19.0    0.01
         dft_xc_eval          2375.8    1.80          2381.5    1.80
     scf_loop_energy             1.1    0.00             1.1    0.00
     scf_loop_mkfock             2.6    0.00             2.6    0.00
       scf_loop_diis           310.0    0.23           310.7    0.23
       scf_loop_diag          1435.3    1.09          1438.7    1.09
          diag_rdiag             0.0    0.00             0.0    0.00
     scf_loop_modump             0.0    0.00             0.0    0.00
      scf_loop_ortho            69.0    0.05            69.2    0.05
          Scf_a_loop            29.8    0.02            35.2    0.03
         Ridft_a_scf             0.3    0.00             0.3    0.00
         a_scf_fanal             0.3    0.00             0.3    0.00
 


    ------------------------------------------------------------------------
         total  cpu-time :   1 days 12 hours 41 minutes and 38 seconds
         total wall-time :   1 days 12 hours 46 minutes and 57 seconds
    ------------------------------------------------------------------------

   ****  ridft : all done  ****


    2019-06-06 14:24:27.285 

 ridft ended normally
