   2   2   1   0
  0.3100466E+02  0.4442806E-09  0.4442806E-09  0.4442806E-09  0.5000000E-15
  1.000000000000000E-004
  CAR 
 unknown system                          
     11.98544509    -31.70651295  301      5.87176757      1.00000000
    -31.707  0.0000E+00  0.0000E+00
    -31.561  0.0000E+00  0.0000E+00
    -31.415  0.0000E+00  0.0000E+00
    -31.270  0.0000E+00  0.0000E+00
    -31.124  0.0000E+00  0.0000E+00
    -30.978  0.0000E+00  0.0000E+00
    -30.833  0.0000E+00  0.0000E+00
    -30.687  0.0000E+00  0.0000E+00
    -30.541  0.0000E+00  0.0000E+00
    -30.396  0.0000E+00  0.0000E+00
    -30.250  0.0000E+00  0.0000E+00
    -30.104  0.0000E+00  0.0000E+00
    -29.959  0.0000E+00  0.0000E+00
    -29.813  0.0000E+00  0.0000E+00
    -29.668  0.0000E+00  0.2000E+01
    -29.522  0.0000E+00  0.2000E+01
    -29.376  0.0000E+00  0.2000E+01
    -29.231  0.0000E+00  0.2000E+01
    -29.085  0.0000E+00  0.2000E+01
    -28.939  0.0000E+00  0.2000E+01
    -28.794  0.0000E+00  0.2000E+01
    -28.648  0.0000E+00  0.2000E+01
    -28.502  0.0000E+00  0.2000E+01
    -28.357  0.0000E+00  0.2000E+01
    -28.211  0.0000E+00  0.2000E+01
    -28.066  0.0000E+00  0.2000E+01
    -27.920  0.0000E+00  0.2000E+01
    -27.774  0.0000E+00  0.2000E+01
    -27.629  0.0000E+00  0.2000E+01
    -27.483  0.0000E+00  0.2000E+01
    -27.337  0.0000E+00  0.2000E+01
    -27.192  0.0000E+00  0.2000E+01
    -27.046  0.0000E+00  0.2000E+01
    -26.900  0.0000E+00  0.2000E+01
    -26.755  0.0000E+00  0.2000E+01
    -26.609  0.0000E+00  0.2000E+01
    -26.463  0.0000E+00  0.2000E+01
    -26.318  0.0000E+00  0.2000E+01
    -26.172  0.0000E+00  0.2000E+01
    -26.027  0.0000E+00  0.2000E+01
    -25.881  0.0000E+00  0.2000E+01
    -25.735  0.0000E+00  0.2000E+01
    -25.590  0.0000E+00  0.2000E+01
    -25.444  0.0000E+00  0.2000E+01
    -25.298  0.0000E+00  0.2000E+01
    -25.153  0.0000E+00  0.2000E+01
    -25.007  0.0000E+00  0.2000E+01
    -24.861  0.0000E+00  0.2000E+01
    -24.716  0.0000E+00  0.2000E+01
    -24.570  0.0000E+00  0.2000E+01
    -24.425  0.0000E+00  0.2000E+01
    -24.279  0.0000E+00  0.2000E+01
    -24.133  0.0000E+00  0.2000E+01
    -23.988  0.0000E+00  0.2000E+01
    -23.842  0.0000E+00  0.2000E+01
    -23.696  0.0000E+00  0.2000E+01
    -23.551  0.0000E+00  0.2000E+01
    -23.405  0.0000E+00  0.2000E+01
    -23.259  0.0000E+00  0.2000E+01
    -23.114  0.0000E+00  0.2000E+01
    -22.968  0.0000E+00  0.2000E+01
    -22.822  0.0000E+00  0.2000E+01
    -22.677  0.0000E+00  0.2000E+01
    -22.531  0.0000E+00  0.2000E+01
    -22.386  0.0000E+00  0.2000E+01
    -22.240  0.0000E+00  0.2000E+01
    -22.094  0.0000E+00  0.2000E+01
    -21.949  0.0000E+00  0.2000E+01
    -21.803  0.0000E+00  0.2000E+01
    -21.657  0.0000E+00  0.2000E+01
    -21.512  0.0000E+00  0.2000E+01
    -21.366  0.0000E+00  0.2000E+01
    -21.220  0.0000E+00  0.2000E+01
    -21.075  0.0000E+00  0.2000E+01
    -20.929  0.0000E+00  0.2000E+01
    -20.784  0.0000E+00  0.2000E+01
    -20.638  0.0000E+00  0.2000E+01
    -20.492  0.0000E+00  0.2000E+01
    -20.347  0.0000E+00  0.2000E+01
    -20.201  0.0000E+00  0.2000E+01
    -20.055  0.0000E+00  0.2000E+01
    -19.910  0.0000E+00  0.2000E+01
    -19.764  0.0000E+00  0.2000E+01
    -19.618  0.0000E+00  0.2000E+01
    -19.473  0.0000E+00  0.2000E+01
    -19.327  0.0000E+00  0.2000E+01
    -19.181  0.0000E+00  0.2000E+01
    -19.036  0.0000E+00  0.2000E+01
    -18.890  0.0000E+00  0.2000E+01
    -18.745  0.0000E+00  0.2000E+01
    -18.599  0.0000E+00  0.2000E+01
    -18.453  0.0000E+00  0.2000E+01
    -18.308  0.0000E+00  0.2000E+01
    -18.162  0.0000E+00  0.2000E+01
    -18.016  0.0000E+00  0.2000E+01
    -17.871  0.0000E+00  0.2000E+01
    -17.725  0.0000E+00  0.2000E+01
    -17.579  0.0000E+00  0.2000E+01
    -17.434  0.0000E+00  0.2000E+01
    -17.288  0.0000E+00  0.2000E+01
    -17.143  0.0000E+00  0.2000E+01
    -16.997  0.0000E+00  0.2000E+01
    -16.851  0.0000E+00  0.2000E+01
    -16.706  0.0000E+00  0.2000E+01
    -16.560  0.0000E+00  0.2000E+01
    -16.414  0.0000E+00  0.2000E+01
    -16.269  0.0000E+00  0.2000E+01
    -16.123  0.0000E+00  0.2000E+01
    -15.977  0.0000E+00  0.2000E+01
    -15.832  0.0000E+00  0.2000E+01
    -15.686  0.0000E+00  0.2000E+01
    -15.540  0.0000E+00  0.2000E+01
    -15.395  0.0000E+00  0.2000E+01
    -15.249  0.0000E+00  0.2000E+01
    -15.104  0.0000E+00  0.2000E+01
    -14.958  0.0000E+00  0.2000E+01
    -14.812  0.0000E+00  0.2000E+01
    -14.667  0.0000E+00  0.2000E+01
    -14.521  0.0000E+00  0.2000E+01
    -14.375  0.0000E+00  0.2000E+01
    -14.230  0.0000E+00  0.2000E+01
    -14.084  0.0000E+00  0.2000E+01
    -13.938  0.0000E+00  0.2000E+01
    -13.793  0.0000E+00  0.2000E+01
    -13.647  0.0000E+00  0.2000E+01
    -13.502  0.0000E+00  0.2000E+01
    -13.356  0.0000E+00  0.2000E+01
    -13.210  0.0000E+00  0.2000E+01
    -13.065  0.0000E+00  0.2000E+01
    -12.919  0.0000E+00  0.2000E+01
    -12.773  0.0000E+00  0.2000E+01
    -12.628  0.0000E+00  0.2000E+01
    -12.482  0.0000E+00  0.2000E+01
    -12.336  0.0000E+00  0.2000E+01
    -12.191  0.0000E+00  0.2000E+01
    -12.045  0.0000E+00  0.2000E+01
    -11.899  0.0000E+00  0.2000E+01
    -11.754  0.0000E+00  0.2000E+01
    -11.608  0.0000E+00  0.2000E+01
    -11.463  0.0000E+00  0.2000E+01
    -11.317  0.0000E+00  0.2000E+01
    -11.171  0.0000E+00  0.2000E+01
    -11.026  0.0000E+00  0.2000E+01
    -10.880  0.0000E+00  0.2000E+01
    -10.734  0.0000E+00  0.2000E+01
    -10.589  0.0000E+00  0.2000E+01
    -10.443  0.0000E+00  0.2000E+01
    -10.297  0.0000E+00  0.2000E+01
    -10.152  0.0000E+00  0.2000E+01
    -10.006  0.2579E+01  0.2066E+01
     -9.861  0.8108E+01  0.3462E+01
     -9.715  0.7861E+01  0.4246E+01
     -9.569  0.2530E+02  0.6747E+01
     -9.424  0.0000E+00  0.8000E+01
     -9.278  0.0000E+00  0.8000E+01
     -9.132  0.0000E+00  0.8000E+01
     -8.987  0.0000E+00  0.8000E+01
     -8.841  0.0000E+00  0.8000E+01
     -8.695  0.0000E+00  0.8000E+01
     -8.550  0.0000E+00  0.8000E+01
     -8.404  0.0000E+00  0.8000E+01
     -8.258  0.0000E+00  0.8000E+01
     -8.113  0.0000E+00  0.8000E+01
     -7.967  0.0000E+00  0.8000E+01
     -7.822  0.0000E+00  0.8000E+01
     -7.676  0.0000E+00  0.8000E+01
     -7.530  0.0000E+00  0.8000E+01
     -7.385  0.0000E+00  0.8000E+01
     -7.239  0.0000E+00  0.8000E+01
     -7.093  0.0000E+00  0.8000E+01
     -6.948  0.0000E+00  0.8000E+01
     -6.802  0.0000E+00  0.8000E+01
     -6.656  0.0000E+00  0.8000E+01
     -6.511  0.0000E+00  0.8000E+01
     -6.365  0.0000E+00  0.8000E+01
     -6.220  0.0000E+00  0.8000E+01
     -6.074  0.0000E+00  0.8000E+01
     -5.928  0.0000E+00  0.8000E+01
     -5.783  0.0000E+00  0.8000E+01
     -5.637  0.0000E+00  0.8000E+01
     -5.491  0.0000E+00  0.8000E+01
     -5.346  0.0000E+00  0.8000E+01
     -5.200  0.0000E+00  0.8000E+01
     -5.054  0.0000E+00  0.8000E+01
     -4.909  0.0000E+00  0.8000E+01
     -4.763  0.0000E+00  0.8000E+01
     -4.617  0.0000E+00  0.8000E+01
     -4.472  0.0000E+00  0.8000E+01
     -4.326  0.0000E+00  0.8000E+01
     -4.181  0.0000E+00  0.8000E+01
     -4.035  0.0000E+00  0.8000E+01
     -3.889  0.0000E+00  0.8000E+01
     -3.744  0.0000E+00  0.8000E+01
     -3.598  0.0000E+00  0.8000E+01
     -3.452  0.0000E+00  0.8000E+01
     -3.307  0.0000E+00  0.8000E+01
     -3.161  0.0000E+00  0.8000E+01
     -3.015  0.0000E+00  0.8000E+01
     -2.870  0.0000E+00  0.8000E+01
     -2.724  0.0000E+00  0.8000E+01
     -2.579  0.0000E+00  0.8000E+01
     -2.433  0.0000E+00  0.8000E+01
     -2.287  0.0000E+00  0.8000E+01
     -2.142  0.0000E+00  0.8000E+01
     -1.996  0.0000E+00  0.8000E+01
     -1.850  0.0000E+00  0.8000E+01
     -1.705  0.0000E+00  0.8000E+01
     -1.559  0.0000E+00  0.8000E+01
     -1.413  0.0000E+00  0.8000E+01
     -1.268  0.0000E+00  0.8000E+01
     -1.122  0.0000E+00  0.8000E+01
     -0.977  0.0000E+00  0.8000E+01
     -0.831  0.0000E+00  0.8000E+01
     -0.685  0.0000E+00  0.8000E+01
     -0.540  0.0000E+00  0.8000E+01
     -0.394  0.0000E+00  0.8000E+01
     -0.248  0.1418E+01  0.8047E+01
     -0.103  0.8741E+01  0.8761E+01
      0.043  0.1805E+02  0.1123E+02
      0.189  0.2839E+02  0.1416E+02
      0.334  0.1988E+02  0.1795E+02
      0.480  0.9902E-01  0.1803E+02
      0.626  0.1210E+00  0.1804E+02
      0.771  0.1394E+00  0.1806E+02
      0.917  0.1620E+00  0.1808E+02
      1.062  0.1823E+00  0.1811E+02
      1.208  0.2053E+00  0.1814E+02
      1.354  0.2320E+00  0.1817E+02
      1.499  0.2596E+00  0.1820E+02
      1.645  0.2934E+00  0.1824E+02
      1.791  0.3351E+00  0.1829E+02
      1.936  0.3921E+00  0.1834E+02
      2.082  0.8730E+00  0.1843E+02
      2.228  0.1160E+01  0.1859E+02
      2.373  0.1120E+01  0.1876E+02
      2.519  0.1114E+01  0.1892E+02
      2.664  0.1163E+01  0.1909E+02
      2.810  0.1254E+01  0.1926E+02
      2.956  0.1421E+01  0.1946E+02
      3.101  0.1259E+01  0.1967E+02
      3.247  0.9966E+00  0.1983E+02
      3.393  0.7631E+00  0.1997E+02
      3.538  0.0000E+00  0.2000E+02
      3.684  0.0000E+00  0.2000E+02
      3.830  0.0000E+00  0.2000E+02
      3.975  0.5352E+00  0.2007E+02
      4.121  0.7405E+00  0.2016E+02
      4.267  0.9957E+00  0.2029E+02
      4.412  0.1005E+01  0.2043E+02
      4.558  0.1003E+01  0.2058E+02
      4.703  0.1074E+01  0.2073E+02
      4.849  0.1079E+01  0.2089E+02
      4.995  0.1089E+01  0.2105E+02
      5.140  0.1141E+01  0.2121E+02
      5.286  0.9901E+00  0.2137E+02
      5.432  0.8011E+00  0.2150E+02
      5.577  0.6823E+00  0.2160E+02
      5.723  0.6654E+00  0.2170E+02
      5.869  0.5019E+01  0.2198E+02
      6.014  0.6655E+01  0.2305E+02
      6.160  0.2837E+01  0.2370E+02
      6.305  0.2713E+01  0.2411E+02
      6.451  0.3085E+01  0.2452E+02
      6.597  0.1793E+01  0.2483E+02
      6.742  0.1433E+01  0.2507E+02
      6.888  0.1234E+01  0.2526E+02
      7.034  0.1091E+01  0.2543E+02
      7.179  0.9902E+00  0.2558E+02
      7.325  0.9728E+00  0.2572E+02
      7.471  0.8275E+00  0.2584E+02
      7.616  0.7643E+00  0.2595E+02
      7.762  0.7895E+00  0.2607E+02
      7.908  0.1093E+01  0.2621E+02
      8.053  0.1365E+01  0.2638E+02
      8.199  0.2008E+01  0.2663E+02
      8.344  0.1873E+01  0.2691E+02
      8.490  0.1856E+01  0.2718E+02
      8.636  0.2521E+01  0.2748E+02
      8.781  0.1956E+01  0.2783E+02
      8.927  0.1661E+01  0.2808E+02
      9.073  0.1344E+01  0.2831E+02
      9.218  0.2356E+01  0.2855E+02
      9.364  0.2545E+01  0.2893E+02
      9.510  0.2048E+01  0.2926E+02
      9.655  0.1642E+01  0.2953E+02
      9.801  0.1451E+01  0.2977E+02
      9.946  0.1109E+01  0.2999E+02
     10.092  0.0000E+00  0.3000E+02
     10.238  0.0000E+00  0.3000E+02
     10.383  0.0000E+00  0.3000E+02
     10.529  0.0000E+00  0.3000E+02
     10.675  0.0000E+00  0.3000E+02
     10.820  0.0000E+00  0.3000E+02
     10.966  0.0000E+00  0.3000E+02
     11.112  0.0000E+00  0.3000E+02
     11.257  0.0000E+00  0.3000E+02
     11.403  0.0000E+00  0.3000E+02
     11.549  0.0000E+00  0.3000E+02
     11.694  0.0000E+00  0.3000E+02
     11.840  0.0000E+00  0.3000E+02
     11.985  0.0000E+00  0.3000E+02
     11.98544509    -31.70651295  301      5.87176757      1.00000000
    -31.707  0.0000E+00  0.0000E+00  0.0000E+00  0.0000E+00  0.0000E+00  0.0000E+00  0.0000E+00  0.0000E+00  0.0000E+00  0.0000E+00  0.0000E+00  0.0000E+00  0.0000E+00  0.0000E+00  0.0000E+00  0.0000E+00
    -31.561  0.0000E+00  0.0000E+00  0.0000E+00  0.0000E+00  0.0000E+00  0.0000E+00  0.0000E+00  0.0000E+00  0.0000E+00  0.0000E+00  0.0000E+00  0.0000E+00  0.0000E+00  0.0000E+00  0.0000E+00  0.0000E+00
    -31.415  0.0000E+00  0.0000E+00  0.0000E+00  0.0000E+00  0.0000E+00  0.0000E+00  0.0000E+00  0.0000E+00  0.0000E+00  0.0000E+00  0.0000E+00  0.0000E+00  0.0000E+00  0.0000E+00  0.0000E+00  0.0000E+00
    -31.270  0.0000E+00  0.0000E+00  0.0000E+00  0.0000E+00  0.0000E+00  0.0000E+00  0.0000E+00  0.0000E+00  0.0000E+00  0.0000E+00  0.0000E+00  0.0000E+00  0.0000E+00  0.0000E+00  0.0000E+00  0.0000E+00
    -31.124  0.0000E+00  0.0000E+00  0.0000E+00  0.0000E+00  0.0000E+00  0.0000E+00  0.0000E+00  0.0000E+00  0.0000E+00  0.0000E+00  0.0000E+00  0.0000E+00  0.0000E+00  0.0000E+00  0.0000E+00  0.0000E+00
    -30.978  0.0000E+00  0.0000E+00  0.0000E+00  0.0000E+00  0.0000E+00  0.0000E+00  0.0000E+00  0.0000E+00  0.0000E+00  0.0000E+00  0.0000E+00  0.0000E+00  0.0000E+00  0.0000E+00  0.0000E+00  0.0000E+00
    -30.833  0.0000E+00  0.0000E+00  0.0000E+00  0.0000E+00  0.0000E+00  0.0000E+00  0.0000E+00  0.0000E+00  0.0000E+00  0.0000E+00  0.0000E+00  0.0000E+00  0.0000E+00  0.0000E+00  0.0000E+00  0.0000E+00
    -30.687  0.0000E+00  0.0000E+00  0.0000E+00  0.0000E+00  0.0000E+00  0.0000E+00  0.0000E+00  0.0000E+00  0.0000E+00  0.0000E+00  0.0000E+00  0.0000E+00  0.0000E+00  0.0000E+00  0.0000E+00  0.0000E+00
    -30.541  0.0000E+00  0.0000E+00  0.0000E+00  0.0000E+00  0.0000E+00  0.0000E+00  0.0000E+00  0.0000E+00  0.0000E+00  0.0000E+00  0.0000E+00  0.0000E+00  0.0000E+00  0.0000E+00  0.0000E+00  0.0000E+00
    -30.396  0.0000E+00  0.0000E+00  0.0000E+00  0.0000E+00  0.0000E+00  0.0000E+00  0.0000E+00  0.0000E+00  0.0000E+00  0.0000E+00  0.0000E+00  0.0000E+00  0.0000E+00  0.0000E+00  0.0000E+00  0.0000E+00
    -30.250  0.0000E+00  0.0000E+00  0.0000E+00  0.0000E+00  0.0000E+00  0.0000E+00  0.0000E+00  0.0000E+00  0.0000E+00  0.0000E+00  0.0000E+00  0.0000E+00  0.0000E+00  0.0000E+00  0.0000E+00  0.0000E+00
    -30.104  0.0000E+00  0.0000E+00  0.0000E+00  0.0000E+00  0.0000E+00  0.0000E+00  0.0000E+00  0.0000E+00  0.0000E+00  0.0000E+00  0.0000E+00  0.0000E+00  0.0000E+00  0.0000E+00  0.0000E+00  0.0000E+00
    -29.959  0.0000E+00  0.0000E+00  0.0000E+00  0.0000E+00  0.0000E+00  0.0000E+00  0.0000E+00  0.0000E+00  0.0000E+00  0.0000E+00  0.0000E+00  0.0000E+00  0.0000E+00  0.0000E+00  0.0000E+00  0.0000E+00
    -29.813  0.0000E+00  0.0000E+00  0.0000E+00  0.0000E+00  0.0000E+00  0.0000E+00  0.0000E+00  0.0000E+00  0.0000E+00  0.0000E+00  0.0000E+00  0.0000E+00  0.0000E+00  0.0000E+00  0.0000E+00  0.0000E+00
    -29.668  0.0000E+00  0.0000E+00  0.0000E+00  0.0000E+00  0.0000E+00  0.0000E+00  0.0000E+00  0.0000E+00  0.0000E+00  0.0000E+00  0.0000E+00  0.0000E+00  0.0000E+00  0.0000E+00  0.0000E+00  0.0000E+00
    -29.522  0.0000E+00  0.0000E+00  0.0000E+00  0.0000E+00  0.0000E+00  0.0000E+00  0.0000E+00  0.0000E+00  0.0000E+00  0.0000E+00  0.0000E+00  0.0000E+00  0.0000E+00  0.0000E+00  0.0000E+00  0.0000E+00
    -29.376  0.0000E+00  0.0000E+00  0.0000E+00  0.0000E+00  0.0000E+00  0.0000E+00  0.0000E+00  0.0000E+00  0.0000E+00  0.0000E+00  0.0000E+00  0.0000E+00  0.0000E+00  0.0000E+00  0.0000E+00  0.0000E+00
    -29.231  0.0000E+00  0.0000E+00  0.0000E+00  0.0000E+00  0.0000E+00  0.0000E+00  0.0000E+00  0.0000E+00  0.0000E+00  0.0000E+00  0.0000E+00  0.0000E+00  0.0000E+00  0.0000E+00  0.0000E+00  0.0000E+00
    -29.085  0.0000E+00  0.0000E+00  0.0000E+00  0.0000E+00  0.0000E+00  0.0000E+00  0.0000E+00  0.0000E+00  0.0000E+00  0.0000E+00  0.0000E+00  0.0000E+00  0.0000E+00  0.0000E+00  0.0000E+00  0.0000E+00
    -28.939  0.0000E+00  0.0000E+00  0.0000E+00  0.0000E+00  0.0000E+00  0.0000E+00  0.0000E+00  0.0000E+00  0.0000E+00  0.0000E+00  0.0000E+00  0.0000E+00  0.0000E+00  0.0000E+00  0.0000E+00  0.0000E+00
    -28.794  0.0000E+00  0.0000E+00  0.0000E+00  0.0000E+00  0.0000E+00  0.0000E+00  0.0000E+00  0.0000E+00  0.0000E+00  0.0000E+00  0.0000E+00  0.0000E+00  0.0000E+00  0.0000E+00  0.0000E+00  0.0000E+00
    -28.648  0.0000E+00  0.0000E+00  0.0000E+00  0.0000E+00  0.0000E+00  0.0000E+00  0.0000E+00  0.0000E+00  0.0000E+00  0.0000E+00  0.0000E+00  0.0000E+00  0.0000E+00  0.0000E+00  0.0000E+00  0.0000E+00
    -28.502  0.0000E+00  0.0000E+00  0.0000E+00  0.0000E+00  0.0000E+00  0.0000E+00  0.0000E+00  0.0000E+00  0.0000E+00  0.0000E+00  0.0000E+00  0.0000E+00  0.0000E+00  0.0000E+00  0.0000E+00  0.0000E+00
    -28.357  0.0000E+00  0.0000E+00  0.0000E+00  0.0000E+00  0.0000E+00  0.0000E+00  0.0000E+00  0.0000E+00  0.0000E+00  0.0000E+00  0.0000E+00  0.0000E+00  0.0000E+00  0.0000E+00  0.0000E+00  0.0000E+00
    -28.211  0.0000E+00  0.0000E+00  0.0000E+00  0.0000E+00  0.0000E+00  0.0000E+00  0.0000E+00  0.0000E+00  0.0000E+00  0.0000E+00  0.0000E+00  0.0000E+00  0.0000E+00  0.0000E+00  0.0000E+00  0.0000E+00
    -28.066  0.0000E+00  0.0000E+00  0.0000E+00  0.0000E+00  0.0000E+00  0.0000E+00  0.0000E+00  0.0000E+00  0.0000E+00  0.0000E+00  0.0000E+00  0.0000E+00  0.0000E+00  0.0000E+00  0.0000E+00  0.0000E+00
    -27.920  0.0000E+00  0.0000E+00  0.0000E+00  0.0000E+00  0.0000E+00  0.0000E+00  0.0000E+00  0.0000E+00  0.0000E+00  0.0000E+00  0.0000E+00  0.0000E+00  0.0000E+00  0.0000E+00  0.0000E+00  0.0000E+00
    -27.774  0.0000E+00  0.0000E+00  0.0000E+00  0.0000E+00  0.0000E+00  0.0000E+00  0.0000E+00  0.0000E+00  0.0000E+00  0.0000E+00  0.0000E+00  0.0000E+00  0.0000E+00  0.0000E+00  0.0000E+00  0.0000E+00
    -27.629  0.0000E+00  0.0000E+00  0.0000E+00  0.0000E+00  0.0000E+00  0.0000E+00  0.0000E+00  0.0000E+00  0.0000E+00  0.0000E+00  0.0000E+00  0.0000E+00  0.0000E+00  0.0000E+00  0.0000E+00  0.0000E+00
    -27.483  0.0000E+00  0.0000E+00  0.0000E+00  0.0000E+00  0.0000E+00  0.0000E+00  0.0000E+00  0.0000E+00  0.0000E+00  0.0000E+00  0.0000E+00  0.0000E+00  0.0000E+00  0.0000E+00  0.0000E+00  0.0000E+00
    -27.337  0.0000E+00  0.0000E+00  0.0000E+00  0.0000E+00  0.0000E+00  0.0000E+00  0.0000E+00  0.0000E+00  0.0000E+00  0.0000E+00  0.0000E+00  0.0000E+00  0.0000E+00  0.0000E+00  0.0000E+00  0.0000E+00
    -27.192  0.0000E+00  0.0000E+00  0.0000E+00  0.0000E+00  0.0000E+00  0.0000E+00  0.0000E+00  0.0000E+00  0.0000E+00  0.0000E+00  0.0000E+00  0.0000E+00  0.0000E+00  0.0000E+00  0.0000E+00  0.0000E+00
    -27.046  0.0000E+00  0.0000E+00  0.0000E+00  0.0000E+00  0.0000E+00  0.0000E+00  0.0000E+00  0.0000E+00  0.0000E+00  0.0000E+00  0.0000E+00  0.0000E+00  0.0000E+00  0.0000E+00  0.0000E+00  0.0000E+00
    -26.900  0.0000E+00  0.0000E+00  0.0000E+00  0.0000E+00  0.0000E+00  0.0000E+00  0.0000E+00  0.0000E+00  0.0000E+00  0.0000E+00  0.0000E+00  0.0000E+00  0.0000E+00  0.0000E+00  0.0000E+00  0.0000E+00
    -26.755  0.0000E+00  0.0000E+00  0.0000E+00  0.0000E+00  0.0000E+00  0.0000E+00  0.0000E+00  0.0000E+00  0.0000E+00  0.0000E+00  0.0000E+00  0.0000E+00  0.0000E+00  0.0000E+00  0.0000E+00  0.0000E+00
    -26.609  0.0000E+00  0.0000E+00  0.0000E+00  0.0000E+00  0.0000E+00  0.0000E+00  0.0000E+00  0.0000E+00  0.0000E+00  0.0000E+00  0.0000E+00  0.0000E+00  0.0000E+00  0.0000E+00  0.0000E+00  0.0000E+00
    -26.463  0.0000E+00  0.0000E+00  0.0000E+00  0.0000E+00  0.0000E+00  0.0000E+00  0.0000E+00  0.0000E+00  0.0000E+00  0.0000E+00  0.0000E+00  0.0000E+00  0.0000E+00  0.0000E+00  0.0000E+00  0.0000E+00
    -26.318  0.0000E+00  0.0000E+00  0.0000E+00  0.0000E+00  0.0000E+00  0.0000E+00  0.0000E+00  0.0000E+00  0.0000E+00  0.0000E+00  0.0000E+00  0.0000E+00  0.0000E+00  0.0000E+00  0.0000E+00  0.0000E+00
    -26.172  0.0000E+00  0.0000E+00  0.0000E+00  0.0000E+00  0.0000E+00  0.0000E+00  0.0000E+00  0.0000E+00  0.0000E+00  0.0000E+00  0.0000E+00  0.0000E+00  0.0000E+00  0.0000E+00  0.0000E+00  0.0000E+00
    -26.027  0.0000E+00  0.0000E+00  0.0000E+00  0.0000E+00  0.0000E+00  0.0000E+00  0.0000E+00  0.0000E+00  0.0000E+00  0.0000E+00  0.0000E+00  0.0000E+00  0.0000E+00  0.0000E+00  0.0000E+00  0.0000E+00
    -25.881  0.0000E+00  0.0000E+00  0.0000E+00  0.0000E+00  0.0000E+00  0.0000E+00  0.0000E+00  0.0000E+00  0.0000E+00  0.0000E+00  0.0000E+00  0.0000E+00  0.0000E+00  0.0000E+00  0.0000E+00  0.0000E+00
    -25.735  0.0000E+00  0.0000E+00  0.0000E+00  0.0000E+00  0.0000E+00  0.0000E+00  0.0000E+00  0.0000E+00  0.0000E+00  0.0000E+00  0.0000E+00  0.0000E+00  0.0000E+00  0.0000E+00  0.0000E+00  0.0000E+00
    -25.590  0.0000E+00  0.0000E+00  0.0000E+00  0.0000E+00  0.0000E+00  0.0000E+00  0.0000E+00  0.0000E+00  0.0000E+00  0.0000E+00  0.0000E+00  0.0000E+00  0.0000E+00  0.0000E+00  0.0000E+00  0.0000E+00
    -25.444  0.0000E+00  0.0000E+00  0.0000E+00  0.0000E+00  0.0000E+00  0.0000E+00  0.0000E+00  0.0000E+00  0.0000E+00  0.0000E+00  0.0000E+00  0.0000E+00  0.0000E+00  0.0000E+00  0.0000E+00  0.0000E+00
    -25.298  0.0000E+00  0.0000E+00  0.0000E+00  0.0000E+00  0.0000E+00  0.0000E+00  0.0000E+00  0.0000E+00  0.0000E+00  0.0000E+00  0.0000E+00  0.0000E+00  0.0000E+00  0.0000E+00  0.0000E+00  0.0000E+00
    -25.153  0.0000E+00  0.0000E+00  0.0000E+00  0.0000E+00  0.0000E+00  0.0000E+00  0.0000E+00  0.0000E+00  0.0000E+00  0.0000E+00  0.0000E+00  0.0000E+00  0.0000E+00  0.0000E+00  0.0000E+00  0.0000E+00
    -25.007  0.0000E+00  0.0000E+00  0.0000E+00  0.0000E+00  0.0000E+00  0.0000E+00  0.0000E+00  0.0000E+00  0.0000E+00  0.0000E+00  0.0000E+00  0.0000E+00  0.0000E+00  0.0000E+00  0.0000E+00  0.0000E+00
    -24.861  0.0000E+00  0.0000E+00  0.0000E+00  0.0000E+00  0.0000E+00  0.0000E+00  0.0000E+00  0.0000E+00  0.0000E+00  0.0000E+00  0.0000E+00  0.0000E+00  0.0000E+00  0.0000E+00  0.0000E+00  0.0000E+00
    -24.716  0.0000E+00  0.0000E+00  0.0000E+00  0.0000E+00  0.0000E+00  0.0000E+00  0.0000E+00  0.0000E+00  0.0000E+00  0.0000E+00  0.0000E+00  0.0000E+00  0.0000E+00  0.0000E+00  0.0000E+00  0.0000E+00
    -24.570  0.0000E+00  0.0000E+00  0.0000E+00  0.0000E+00  0.0000E+00  0.0000E+00  0.0000E+00  0.0000E+00  0.0000E+00  0.0000E+00  0.0000E+00  0.0000E+00  0.0000E+00  0.0000E+00  0.0000E+00  0.0000E+00
    -24.425  0.0000E+00  0.0000E+00  0.0000E+00  0.0000E+00  0.0000E+00  0.0000E+00  0.0000E+00  0.0000E+00  0.0000E+00  0.0000E+00  0.0000E+00  0.0000E+00  0.0000E+00  0.0000E+00  0.0000E+00  0.0000E+00
    -24.279  0.0000E+00  0.0000E+00  0.0000E+00  0.0000E+00  0.0000E+00  0.0000E+00  0.0000E+00  0.0000E+00  0.0000E+00  0.0000E+00  0.0000E+00  0.0000E+00  0.0000E+00  0.0000E+00  0.0000E+00  0.0000E+00
    -24.133  0.0000E+00  0.0000E+00  0.0000E+00  0.0000E+00  0.0000E+00  0.0000E+00  0.0000E+00  0.0000E+00  0.0000E+00  0.0000E+00  0.0000E+00  0.0000E+00  0.0000E+00  0.0000E+00  0.0000E+00  0.0000E+00
    -23.988  0.0000E+00  0.0000E+00  0.0000E+00  0.0000E+00  0.0000E+00  0.0000E+00  0.0000E+00  0.0000E+00  0.0000E+00  0.0000E+00  0.0000E+00  0.0000E+00  0.0000E+00  0.0000E+00  0.0000E+00  0.0000E+00
    -23.842  0.0000E+00  0.0000E+00  0.0000E+00  0.0000E+00  0.0000E+00  0.0000E+00  0.0000E+00  0.0000E+00  0.0000E+00  0.0000E+00  0.0000E+00  0.0000E+00  0.0000E+00  0.0000E+00  0.0000E+00  0.0000E+00
    -23.696  0.0000E+00  0.0000E+00  0.0000E+00  0.0000E+00  0.0000E+00  0.0000E+00  0.0000E+00  0.0000E+00  0.0000E+00  0.0000E+00  0.0000E+00  0.0000E+00  0.0000E+00  0.0000E+00  0.0000E+00  0.0000E+00
    -23.551  0.0000E+00  0.0000E+00  0.0000E+00  0.0000E+00  0.0000E+00  0.0000E+00  0.0000E+00  0.0000E+00  0.0000E+00  0.0000E+00  0.0000E+00  0.0000E+00  0.0000E+00  0.0000E+00  0.0000E+00  0.0000E+00
    -23.405  0.0000E+00  0.0000E+00  0.0000E+00  0.0000E+00  0.0000E+00  0.0000E+00  0.0000E+00  0.0000E+00  0.0000E+00  0.0000E+00  0.0000E+00  0.0000E+00  0.0000E+00  0.0000E+00  0.0000E+00  0.0000E+00
    -23.259  0.0000E+00  0.0000E+00  0.0000E+00  0.0000E+00  0.0000E+00  0.0000E+00  0.0000E+00  0.0000E+00  0.0000E+00  0.0000E+00  0.0000E+00  0.0000E+00  0.0000E+00  0.0000E+00  0.0000E+00  0.0000E+00
    -23.114  0.0000E+00  0.0000E+00  0.0000E+00  0.0000E+00  0.0000E+00  0.0000E+00  0.0000E+00  0.0000E+00  0.0000E+00  0.0000E+00  0.0000E+00  0.0000E+00  0.0000E+00  0.0000E+00  0.0000E+00  0.0000E+00
    -22.968  0.0000E+00  0.0000E+00  0.0000E+00  0.0000E+00  0.0000E+00  0.0000E+00  0.0000E+00  0.0000E+00  0.0000E+00  0.0000E+00  0.0000E+00  0.0000E+00  0.0000E+00  0.0000E+00  0.0000E+00  0.0000E+00
    -22.822  0.0000E+00  0.0000E+00  0.0000E+00  0.0000E+00  0.0000E+00  0.0000E+00  0.0000E+00  0.0000E+00  0.0000E+00  0.0000E+00  0.0000E+00  0.0000E+00  0.0000E+00  0.0000E+00  0.0000E+00  0.0000E+00
    -22.677  0.0000E+00  0.0000E+00  0.0000E+00  0.0000E+00  0.0000E+00  0.0000E+00  0.0000E+00  0.0000E+00  0.0000E+00  0.0000E+00  0.0000E+00  0.0000E+00  0.0000E+00  0.0000E+00  0.0000E+00  0.0000E+00
    -22.531  0.0000E+00  0.0000E+00  0.0000E+00  0.0000E+00  0.0000E+00  0.0000E+00  0.0000E+00  0.0000E+00  0.0000E+00  0.0000E+00  0.0000E+00  0.0000E+00  0.0000E+00  0.0000E+00  0.0000E+00  0.0000E+00
    -22.386  0.0000E+00  0.0000E+00  0.0000E+00  0.0000E+00  0.0000E+00  0.0000E+00  0.0000E+00  0.0000E+00  0.0000E+00  0.0000E+00  0.0000E+00  0.0000E+00  0.0000E+00  0.0000E+00  0.0000E+00  0.0000E+00
    -22.240  0.0000E+00  0.0000E+00  0.0000E+00  0.0000E+00  0.0000E+00  0.0000E+00  0.0000E+00  0.0000E+00  0.0000E+00  0.0000E+00  0.0000E+00  0.0000E+00  0.0000E+00  0.0000E+00  0.0000E+00  0.0000E+00
    -22.094  0.0000E+00  0.0000E+00  0.0000E+00  0.0000E+00  0.0000E+00  0.0000E+00  0.0000E+00  0.0000E+00  0.0000E+00  0.0000E+00  0.0000E+00  0.0000E+00  0.0000E+00  0.0000E+00  0.0000E+00  0.0000E+00
    -21.949  0.0000E+00  0.0000E+00  0.0000E+00  0.0000E+00  0.0000E+00  0.0000E+00  0.0000E+00  0.0000E+00  0.0000E+00  0.0000E+00  0.0000E+00  0.0000E+00  0.0000E+00  0.0000E+00  0.0000E+00  0.0000E+00
    -21.803  0.0000E+00  0.0000E+00  0.0000E+00  0.0000E+00  0.0000E+00  0.0000E+00  0.0000E+00  0.0000E+00  0.0000E+00  0.0000E+00  0.0000E+00  0.0000E+00  0.0000E+00  0.0000E+00  0.0000E+00  0.0000E+00
    -21.657  0.0000E+00  0.0000E+00  0.0000E+00  0.0000E+00  0.0000E+00  0.0000E+00  0.0000E+00  0.0000E+00  0.0000E+00  0.0000E+00  0.0000E+00  0.0000E+00  0.0000E+00  0.0000E+00  0.0000E+00  0.0000E+00
    -21.512  0.0000E+00  0.0000E+00  0.0000E+00  0.0000E+00  0.0000E+00  0.0000E+00  0.0000E+00  0.0000E+00  0.0000E+00  0.0000E+00  0.0000E+00  0.0000E+00  0.0000E+00  0.0000E+00  0.0000E+00  0.0000E+00
    -21.366  0.0000E+00  0.0000E+00  0.0000E+00  0.0000E+00  0.0000E+00  0.0000E+00  0.0000E+00  0.0000E+00  0.0000E+00  0.0000E+00  0.0000E+00  0.0000E+00  0.0000E+00  0.0000E+00  0.0000E+00  0.0000E+00
    -21.220  0.0000E+00  0.0000E+00  0.0000E+00  0.0000E+00  0.0000E+00  0.0000E+00  0.0000E+00  0.0000E+00  0.0000E+00  0.0000E+00  0.0000E+00  0.0000E+00  0.0000E+00  0.0000E+00  0.0000E+00  0.0000E+00
    -21.075  0.0000E+00  0.0000E+00  0.0000E+00  0.0000E+00  0.0000E+00  0.0000E+00  0.0000E+00  0.0000E+00  0.0000E+00  0.0000E+00  0.0000E+00  0.0000E+00  0.0000E+00  0.0000E+00  0.0000E+00  0.0000E+00
    -20.929  0.0000E+00  0.0000E+00  0.0000E+00  0.0000E+00  0.0000E+00  0.0000E+00  0.0000E+00  0.0000E+00  0.0000E+00  0.0000E+00  0.0000E+00  0.0000E+00  0.0000E+00  0.0000E+00  0.0000E+00  0.0000E+00
    -20.784  0.0000E+00  0.0000E+00  0.0000E+00  0.0000E+00  0.0000E+00  0.0000E+00  0.0000E+00  0.0000E+00  0.0000E+00  0.0000E+00  0.0000E+00  0.0000E+00  0.0000E+00  0.0000E+00  0.0000E+00  0.0000E+00
    -20.638  0.0000E+00  0.0000E+00  0.0000E+00  0.0000E+00  0.0000E+00  0.0000E+00  0.0000E+00  0.0000E+00  0.0000E+00  0.0000E+00  0.0000E+00  0.0000E+00  0.0000E+00  0.0000E+00  0.0000E+00  0.0000E+00
    -20.492  0.0000E+00  0.0000E+00  0.0000E+00  0.0000E+00  0.0000E+00  0.0000E+00  0.0000E+00  0.0000E+00  0.0000E+00  0.0000E+00  0.0000E+00  0.0000E+00  0.0000E+00  0.0000E+00  0.0000E+00  0.0000E+00
    -20.347  0.0000E+00  0.0000E+00  0.0000E+00  0.0000E+00  0.0000E+00  0.0000E+00  0.0000E+00  0.0000E+00  0.0000E+00  0.0000E+00  0.0000E+00  0.0000E+00  0.0000E+00  0.0000E+00  0.0000E+00  0.0000E+00
    -20.201  0.0000E+00  0.0000E+00  0.0000E+00  0.0000E+00  0.0000E+00  0.0000E+00  0.0000E+00  0.0000E+00  0.0000E+00  0.0000E+00  0.0000E+00  0.0000E+00  0.0000E+00  0.0000E+00  0.0000E+00  0.0000E+00
    -20.055  0.0000E+00  0.0000E+00  0.0000E+00  0.0000E+00  0.0000E+00  0.0000E+00  0.0000E+00  0.0000E+00  0.0000E+00  0.0000E+00  0.0000E+00  0.0000E+00  0.0000E+00  0.0000E+00  0.0000E+00  0.0000E+00
    -19.910  0.0000E+00  0.0000E+00  0.0000E+00  0.0000E+00  0.0000E+00  0.0000E+00  0.0000E+00  0.0000E+00  0.0000E+00  0.0000E+00  0.0000E+00  0.0000E+00  0.0000E+00  0.0000E+00  0.0000E+00  0.0000E+00
    -19.764  0.0000E+00  0.0000E+00  0.0000E+00  0.0000E+00  0.0000E+00  0.0000E+00  0.0000E+00  0.0000E+00  0.0000E+00  0.0000E+00  0.0000E+00  0.0000E+00  0.0000E+00  0.0000E+00  0.0000E+00  0.0000E+00
    -19.618  0.0000E+00  0.0000E+00  0.0000E+00  0.0000E+00  0.0000E+00  0.0000E+00  0.0000E+00  0.0000E+00  0.0000E+00  0.0000E+00  0.0000E+00  0.0000E+00  0.0000E+00  0.0000E+00  0.0000E+00  0.0000E+00
    -19.473  0.0000E+00  0.0000E+00  0.0000E+00  0.0000E+00  0.0000E+00  0.0000E+00  0.0000E+00  0.0000E+00  0.0000E+00  0.0000E+00  0.0000E+00  0.0000E+00  0.0000E+00  0.0000E+00  0.0000E+00  0.0000E+00
    -19.327  0.0000E+00  0.0000E+00  0.0000E+00  0.0000E+00  0.0000E+00  0.0000E+00  0.0000E+00  0.0000E+00  0.0000E+00  0.0000E+00  0.0000E+00  0.0000E+00  0.0000E+00  0.0000E+00  0.0000E+00  0.0000E+00
    -19.181  0.0000E+00  0.0000E+00  0.0000E+00  0.0000E+00  0.0000E+00  0.0000E+00  0.0000E+00  0.0000E+00  0.0000E+00  0.0000E+00  0.0000E+00  0.0000E+00  0.0000E+00  0.0000E+00  0.0000E+00  0.0000E+00
    -19.036  0.0000E+00  0.0000E+00  0.0000E+00  0.0000E+00  0.0000E+00  0.0000E+00  0.0000E+00  0.0000E+00  0.0000E+00  0.0000E+00  0.0000E+00  0.0000E+00  0.0000E+00  0.0000E+00  0.0000E+00  0.0000E+00
    -18.890  0.0000E+00  0.0000E+00  0.0000E+00  0.0000E+00  0.0000E+00  0.0000E+00  0.0000E+00  0.0000E+00  0.0000E+00  0.0000E+00  0.0000E+00  0.0000E+00  0.0000E+00  0.0000E+00  0.0000E+00  0.0000E+00
    -18.745  0.0000E+00  0.0000E+00  0.0000E+00  0.0000E+00  0.0000E+00  0.0000E+00  0.0000E+00  0.0000E+00  0.0000E+00  0.0000E+00  0.0000E+00  0.0000E+00  0.0000E+00  0.0000E+00  0.0000E+00  0.0000E+00
    -18.599  0.0000E+00  0.0000E+00  0.0000E+00  0.0000E+00  0.0000E+00  0.0000E+00  0.0000E+00  0.0000E+00  0.0000E+00  0.0000E+00  0.0000E+00  0.0000E+00  0.0000E+00  0.0000E+00  0.0000E+00  0.0000E+00
    -18.453  0.0000E+00  0.0000E+00  0.0000E+00  0.0000E+00  0.0000E+00  0.0000E+00  0.0000E+00  0.0000E+00  0.0000E+00  0.0000E+00  0.0000E+00  0.0000E+00  0.0000E+00  0.0000E+00  0.0000E+00  0.0000E+00