<?xml version="1.0" encoding="ISO-8859-1"?>
<modeling>
 <generator>
  <i name="program" type="string">vasp </i>
  <i name="version" type="string">5.3.2  </i>
  <i name="subversion" type="string">13Sep12 (build Mar 19 2013 10:46:17) complex                          serial </i>
  <i name="platform" type="string">LinuxIFC </i>
  <i name="date" type="string">2013 12 05 </i>
  <i name="time" type="string">17:01:31 </i>
 </generator>
 <incar>
  <i type="int" name="ISTART">     0</i>
  <i type="string" name="PREC">acc</i>
  <i type="string" name="ALGO"> FAST</i>
  <i type="int" name="ISPIN">     2</i>
  <i type="int" name="NELM">    60</i>
  <i type="int" name="NELMIN">     5</i>
  <i type="int" name="IBRION">     2</i>
  <i name="EDIFF">      0.00010000</i>
  <i type="int" name="NSW">    60</i>
  <i type="int" name="ISIF">     3</i>
  <i name="ENCUT">    249.80000000</i>
  <i type="int" name="NBANDS">    18</i>
  <i name="POTIM">      0.50000000</i>
  <v name="MAGMOM">      0.00300000      0.00100000</v>
  <i type="logical" name="LREAL"> F  </i>
  <i type="int" name="ISMEAR">     1</i>
  <i name="SIGMA">      0.20000000</i>
  <i name="PSTRESS">      0.00000000</i>
  <i type="logical" name="LWAVE"> F  </i>
  <i type="logical" name="LCHARG"> T  </i>
  <i type="logical" name="LVTOT"> F  </i>
  <i type="logical" name="LORBIT"> F  </i>
  <i type="int" name="NELM">    60</i>
  <i type="logical" name="LDIPOL"> F  </i>
  <i type="int" name="IDIPOL">     0</i>
  <i name="EPSILON">      1.00000000</i>
 </incar>
 <kpoints>
  <generation param="Gamma">
   <v type="int" name="divisions">      16       16       16 </v>
   <v name="usershift">      0.00000000       0.00000000       0.00000000 </v>
   <v name="genvec1">      0.06250000       0.00000000       0.00000000 </v>
   <v name="genvec2">      0.00000000       0.06250000       0.00000000 </v>
   <v name="genvec3">      0.00000000       0.00000000       0.06250000 </v>
   <v name="shift">      0.00000000       0.00000000       0.00000000 </v>
  </generation>
  <varray name="kpointlist" >
   <v>       0.00000000       0.00000000       0.00000000 </v>
   <v>       0.06250000       0.00000000       0.00000000 </v>
   <v>       0.12500000       0.00000000       0.00000000 </v>
   <v>       0.18750000       0.00000000       0.00000000 </v>
   <v>       0.25000000       0.00000000       0.00000000 </v>
   <v>       0.31250000       0.00000000       0.00000000 </v>
   <v>       0.37500000       0.00000000       0.00000000 </v>
   <v>       0.43750000       0.00000000       0.00000000 </v>
   <v>       0.50000000       0.00000000       0.00000000 </v>
   <v>       0.06250000       0.06250000       0.00000000 </v>
   <v>       0.12500000       0.06250000       0.00000000 </v>
   <v>       0.18750000       0.06250000       0.00000000 </v>
   <v>       0.25000000       0.06250000       0.00000000 </v>
   <v>       0.31250000       0.06250000       0.00000000 </v>
   <v>       0.37500000       0.06250000       0.00000000 </v>
   <v>       0.43750000       0.06250000       0.00000000 </v>
   <v>       0.50000000       0.06250000       0.00000000 </v>
   <v>      -0.43750000       0.06250000       0.00000000 </v>
   <v>      -0.37500000       0.06250000       0.00000000 </v>
   <v>      -0.31250000       0.06250000       0.00000000 </v>
   <v>      -0.25000000       0.06250000       0.00000000 </v>
   <v>      -0.18750000       0.06250000       0.00000000 </v>
   <v>      -0.12500000       0.06250000       0.00000000 </v>
   <v>      -0.06250000       0.06250000       0.00000000 </v>
   <v>       0.12500000       0.12500000       0.00000000 </v>
   <v>       0.18750000       0.12500000       0.00000000 </v>
   <v>       0.25000000       0.12500000       0.00000000 </v>
   <v>       0.31250000       0.12500000       0.00000000 </v>
   <v>       0.37500000       0.12500000       0.00000000 </v>
   <v>       0.43750000       0.12500000       0.00000000 </v>
   <v>       0.50000000       0.12500000       0.00000000 </v>
   <v>      -0.43750000       0.12500000       0.00000000 </v>
   <v>      -0.37500000       0.12500000       0.00000000 </v>
   <v>      -0.31250000       0.12500000       0.00000000 </v>
   <v>      -0.25000000       0.12500000       0.00000000 </v>
   <v>      -0.18750000       0.12500000       0.00000000 </v>
   <v>      -0.12500000       0.12500000       0.00000000 </v>
   <v>       0.18750000       0.18750000       0.00000000 </v>
   <v>       0.25000000       0.18750000       0.00000000 </v>
   <v>       0.31250000       0.18750000       0.00000000 </v>
   <v>       0.37500000       0.18750000       0.00000000 </v>
   <v>       0.43750000       0.18750000       0.00000000 </v>
   <v>       0.50000000       0.18750000       0.00000000 </v>
   <v>      -0.43750000       0.18750000       0.00000000 </v>
   <v>      -0.37500000       0.18750000       0.00000000 </v>
   <v>      -0.31250000       0.18750000       0.00000000 </v>
   <v>      -0.25000000       0.18750000       0.00000000 </v>
   <v>      -0.18750000       0.18750000       0.00000000 </v>
   <v>       0.25000000       0.25000000       0.00000000 </v>
   <v>       0.31250000       0.25000000       0.00000000 </v>
   <v>       0.37500000       0.25000000       0.00000000 </v>
   <v>       0.43750000       0.25000000       0.00000000 </v>
   <v>       0.50000000       0.25000000       0.00000000 </v>
   <v>      -0.43750000       0.25000000       0.00000000 </v>
   <v>      -0.37500000       0.25000000       0.00000000 </v>
   <v>      -0.31250000       0.25000000       0.00000000 </v>
   <v>      -0.25000000       0.25000000       0.00000000 </v>
   <v>       0.31250000       0.31250000       0.00000000 </v>
   <v>       0.37500000       0.31250000       0.00000000 </v>
   <v>       0.43750000       0.31250000       0.00000000 </v>
   <v>       0.50000000       0.31250000       0.00000000 </v>
   <v>      -0.43750000       0.31250000       0.00000000 </v>
   <v>      -0.37500000       0.31250000       0.00000000 </v>
   <v>      -0.31250000       0.31250000       0.00000000 </v>
   <v>       0.37500000       0.37500000       0.00000000 </v>
   <v>       0.43750000       0.37500000       0.00000000 </v>
   <v>       0.50000000       0.37500000       0.00000000 </v>
   <v>      -0.43750000       0.37500000       0.00000000 </v>
   <v>      -0.37500000       0.37500000       0.00000000 </v>
   <v>       0.43750000       0.43750000       0.00000000 </v>
   <v>       0.50000000       0.43750000       0.00000000 </v>
   <v>      -0.43750000       0.43750000       0.00000000 </v>
   <v>       0.50000000       0.50000000       0.00000000 </v>
   <v>       0.18750000       0.12500000       0.06250000 </v>
   <v>       0.25000000       0.12500000       0.06250000 </v>
   <v>       0.31250000       0.12500000       0.06250000 </v>
   <v>       0.37500000       0.12500000       0.06250000 </v>
   <v>       0.43750000       0.12500000       0.06250000 </v>
   <v>       0.50000000       0.12500000       0.06250000 </v>
   <v>      -0.43750000       0.12500000       0.06250000 </v>
   <v>       0.25000000       0.18750000       0.06250000 </v>
   <v>       0.31250000       0.18750000       0.06250000 </v>
   <v>       0.37500000       0.18750000       0.06250000 </v>
   <v>       0.43750000       0.18750000       0.06250000 </v>
   <v>       0.50000000       0.18750000       0.06250000 </v>
   <v>      -0.43750000       0.18750000       0.06250000 </v>
   <v>      -0.37500000       0.18750000       0.06250000 </v>
   <v>      -0.31250000       0.18750000       0.06250000 </v>
   <v>      -0.25000000       0.18750000       0.06250000 </v>
   <v>      -0.18750000       0.18750000       0.06250000 </v>
   <v>      -0.12500000       0.18750000       0.06250000 </v>
   <v>       0.31250000       0.25000000       0.06250000 </v>
   <v>       0.37500000       0.25000000       0.06250000 </v>
   <v>       0.43750000       0.25000000       0.06250000 </v>
   <v>       0.50000000       0.25000000       0.06250000 </v>
   <v>      -0.43750000       0.25000000       0.06250000 </v>
   <v>      -0.37500000       0.25000000       0.06250000 </v>
   <v>      -0.31250000       0.25000000       0.06250000 </v>
   <v>      -0.25000000       0.25000000       0.06250000 </v>
   <v>      -0.18750000       0.25000000       0.06250000 </v>
   <v>       0.37500000       0.31250000       0.06250000 </v>
   <v>       0.43750000       0.31250000       0.06250000 </v>
   <v>       0.50000000       0.31250000       0.06250000 </v>
   <v>      -0.43750000       0.31250000       0.06250000 </v>
   <v>      -0.37500000       0.31250000       0.06250000 </v>
   <v>      -0.31250000       0.31250000       0.06250000 </v>
   <v>      -0.25000000       0.31250000       0.06250000 </v>
   <v>       0.43750000       0.37500000       0.06250000 </v>
   <v>       0.50000000       0.37500000       0.06250000 </v>
   <v>      -0.43750000       0.37500000       0.06250000 </v>
   <v>      -0.37500000       0.37500000       0.06250000 </v>
   <v>      -0.31250000       0.37500000       0.06250000 </v>
   <v>       0.50000000       0.43750000       0.06250000 </v>
   <v>      -0.43750000       0.43750000       0.06250000 </v>
   <v>      -0.37500000       0.43750000       0.06250000 </v>
   <v>      -0.43750000       0.50000000       0.06250000 </v>
   <v>       0.37500000       0.25000000       0.12500000 </v>
   <v>       0.43750000       0.25000000       0.12500000 </v>
   <v>       0.50000000       0.25000000       0.12500000 </v>
   <v>      -0.43750000       0.25000000       0.12500000 </v>
   <v>      -0.37500000       0.25000000       0.12500000 </v>
   <v>       0.43750000       0.31250000       0.12500000 </v>
   <v>       0.50000000       0.31250000       0.12500000 </v>
   <v>      -0.43750000       0.31250000       0.12500000 </v>
   <v>      -0.37500000       0.31250000       0.12500000 </v>
   <v>      -0.31250000       0.31250000       0.12500000 </v>
   <v>      -0.25000000       0.31250000       0.12500000 </v>
   <v>      -0.18750000       0.31250000       0.12500000 </v>
   <v>       0.50000000       0.37500000       0.12500000 </v>
   <v>      -0.43750000       0.37500000       0.12500000 </v>
   <v>      -0.37500000       0.37500000       0.12500000 </v>
   <v>      -0.31250000       0.37500000       0.12500000 </v>
   <v>      -0.25000000       0.37500000       0.12500000 </v>
   <v>      -0.43750000       0.43750000       0.12500000 </v>
   <v>      -0.37500000       0.43750000       0.12500000 </v>
   <v>      -0.31250000       0.43750000       0.12500000 </v>
   <v>      -0.37500000       0.50000000       0.12500000 </v>
   <v>      -0.43750000       0.37500000       0.18750000 </v>
   <v>      -0.37500000       0.37500000       0.18750000 </v>
   <v>      -0.31250000       0.37500000       0.18750000 </v>
   <v>      -0.37500000       0.43750000       0.18750000 </v>
   <v>      -0.31250000       0.43750000       0.18750000 </v>
   <v>      -0.25000000       0.43750000       0.18750000 </v>
   <v>      -0.31250000       0.50000000       0.18750000 </v>
   <v>      -0.25000000       0.50000000       0.25000000 </v>
  </varray>
  <varray name="weights" >
   <v>       0.00024414 </v>
   <v>       0.00195312 </v>
   <v>       0.00195312 </v>
   <v>       0.00195312 </v>
   <v>       0.00195312 </v>
   <v>       0.00195312 </v>
   <v>       0.00195312 </v>
   <v>       0.00195312 </v>
   <v>       0.00097656 </v>
   <v>       0.00146484 </v>
   <v>       0.00585938 </v>
   <v>       0.00585938 </v>
   <v>       0.00585938 </v>
   <v>       0.00585938 </v>
   <v>       0.00585938 </v>
   <v>       0.00585938 </v>
   <v>       0.00585938 </v>
   <v>       0.00585938 </v>
   <v>       0.00585938 </v>
   <v>       0.00585938 </v>
   <v>       0.00585938 </v>
   <v>       0.00585938 </v>
   <v>       0.00585938 </v>
   <v>       0.00292969 </v>
   <v>       0.00146484 </v>
   <v>       0.00585938 </v>
   <v>       0.00585938 </v>
   <v>       0.00585938 </v>
   <v>       0.00585938 </v>
   <v>       0.00585938 </v>
   <v>       0.00585938 </v>
   <v>       0.00585938 </v>
   <v>       0.00585938 </v>
   <v>       0.00585938 </v>
   <v>       0.00585938 </v>
   <v>       0.00585938 </v>
   <v>       0.00292969 </v>
   <v>       0.00146484 </v>
   <v>       0.00585938 </v>
   <v>       0.00585938 </v>
   <v>       0.00585938 </v>
   <v>       0.00585938 </v>
   <v>       0.00585938 </v>
   <v>       0.00585938 </v>
   <v>       0.00585938 </v>
   <v>       0.00585938 </v>
   <v>       0.00585938 </v>
   <v>       0.00292969 </v>
   <v>       0.00146484 </v>
   <v>       0.00585938 </v>
   <v>       0.00585938 </v>
   <v>       0.00585938 </v>
   <v>       0.00585938 </v>
   <v>       0.00585938 </v>
   <v>       0.00585938 </v>
   <v>       0.00585938 </v>
   <v>       0.00292969 </v>
   <v>       0.00146484 </v>
   <v>       0.00585938 </v>
   <v>       0.00585938 </v>
   <v>       0.00585938 </v>
   <v>       0.00585938 </v>
   <v>       0.00585938 </v>
   <v>       0.00292969 </v>
   <v>       0.00146484 </v>
   <v>       0.00585938 </v>
   <v>       0.00585938 </v>
   <v>       0.00585938 </v>
   <v>       0.00292969 </v>
   <v>       0.00146484 </v>
   <v>       0.00585938 </v>
   <v>       0.00292969 </v>
   <v>       0.00073242 </v>
   <v>       0.00585938 </v>
   <v>       0.01171875 </v>
   <v>       0.01171875 </v>
   <v>       0.01171875 </v>
   <v>       0.01171875 </v>
   <v>       0.01171875 </v>
   <v>       0.00585938 </v>
   <v>       0.00585938 </v>
   <v>       0.01171875 </v>
   <v>       0.01171875 </v>
   <v>       0.01171875 </v>
   <v>       0.01171875 </v>
   <v>       0.01171875 </v>
   <v>       0.01171875 </v>
   <v>       0.01171875 </v>
   <v>       0.01171875 </v>
   <v>       0.01171875 </v>
   <v>       0.00585938 </v>
   <v>       0.00585938 </v>
   <v>       0.01171875 </v>
   <v>       0.01171875 </v>
   <v>       0.01171875 </v>
   <v>       0.01171875 </v>
   <v>       0.01171875 </v>
   <v>       0.01171875 </v>
   <v>       0.01171875 </v>
   <v>       0.00585938 </v>
   <v>       0.00585938 </v>
   <v>       0.01171875 </v>
   <v>       0.01171875 </v>
   <v>       0.01171875 </v>
   <v>       0.01171875 </v>
   <v>       0.01171875 </v>
   <v>       0.00585938 </v>
   <v>       0.00585938 </v>
   <v>       0.01171875 </v>
   <v>       0.01171875 </v>
   <v>       0.01171875 </v>
   <v>       0.00585938 </v>
   <v>       0.00585938 </v>
   <v>       0.01171875 </v>
   <v>       0.00585938 </v>
   <v>       0.00292969 </v>
   <v>       0.00585938 </v>
   <v>       0.01171875 </v>
   <v>       0.01171875 </v>
   <v>       0.01171875 </v>
   <v>       0.00585938 </v>
   <v>       0.00585938 </v>
   <v>       0.01171875 </v>
   <v>       0.01171875 </v>
   <v>       0.01171875 </v>
   <v>       0.01171875 </v>
   <v>       0.01171875 </v>
   <v>       0.00585938 </v>
   <v>       0.00585938 </v>
   <v>       0.01171875 </v>
   <v>       0.01171875 </v>
   <v>       0.01171875 </v>
   <v>       0.00585938 </v>
   <v>       0.00585938 </v>
   <v>       0.01171875 </v>
   <v>       0.00585938 </v>
   <v>       0.00292969 </v>
   <v>       0.00585938 </v>
   <v>       0.01171875 </v>
   <v>       0.00585938 </v>
   <v>       0.00585938 </v>
   <v>       0.01171875 </v>
   <v>       0.00585938 </v>
   <v>       0.00292969 </v>
   <v>       0.00146484 </v>
  </varray>
 </kpoints>
 <parameters>
  <separator name="general" >
   <i type="string" name="SYSTEM">unknown system</i>
   <i type="logical" name="LCOMPAT"> F  </i>
  </separator>
  <separator name="electronic" >
   <i type="string" name="PREC">acc</i>
   <i name="ENMAX">    249.80000000</i>
   <i name="ENAUG">    543.28100000</i>
   <i name="EDIFF">      0.00010000</i>
   <i type="int" name="IALGO">    68</i>
   <i type="int" name="IWAVPR">    11</i>
   <i type="int" name="NBANDS">    18</i>
   <i name="NELECT">     22.00000000</i>
   <i type="int" name="TURBO">     0</i>
   <i type="int" name="IRESTART">     0</i>
   <i type="int" name="NREBOOT">     0</i>
   <i type="int" name="NMIN">     0</i>
   <i name="EREF">      0.00000000</i>
   <separator name="electronic smearing" >
    <i type="int" name="ISMEAR">     1</i>
    <i name="SIGMA">      0.20000000</i>
    <i name="KSPACING">      0.50000000</i>
    <i type="logical" name="KGAMMA"> T  </i>
   </separator>
   <separator name="electronic projectors" >
    <i type="logical" name="LREAL"> F  </i>
    <v name="ROPT">      0.00000000      0.00000000</v>
    <i type="int" name="LMAXPAW">  -100</i>
    <i type="int" name="LMAXMIX">     2</i>
    <i type="logical" name="NLSPLINE"> F  </i>
   </separator>
   <separator name="electronic startup" >
    <i type="int" name="ISTART">     0</i>
    <i type="int" name="ICHARG">     2</i>
    <i type="int" name="INIWAV">     1</i>
   </separator>
   <separator name="electronic spin" >
    <i type="int" name="ISPIN">     2</i>
    <i type="logical" name="LNONCOLLINEAR"> F  </i>
    <v name="MAGMOM">      0.00300000      0.00100000</v>
    <i name="NUPDOWN">     -1.00000000</i>
    <i type="logical" name="LSORBIT"> F  </i>
    <v name="SAXIS">      0.00000000      0.00000000      1.00000000</v>
    <i type="logical" name="LSPIRAL"> F  </i>
    <v name="QSPIRAL">      0.00000000      0.00000000      0.00000000</v>
    <i type="logical" name="LZEROZ"> F  </i>
   </separator>
   <separator name="electronic exchange-correlation" >
    <i type="logical" name="LASPH"> F  </i>
    <i type="logical" name="LMETAGGA"> F  </i>
   </separator>
   <separator name="electronic convergence" >
    <i type="int" name="NELM">    60</i>
    <i type="int" name="NELMDL">    -5</i>
    <i type="int" name="NELMIN">     5</i>
    <i name="ENINI">    249.80000000</i>
    <separator name="electronic convergence detail" >
     <i type="logical" name="LDIAG"> T  </i>
     <i type="logical" name="LSUBROT"> T  </i>
     <i name="WEIMIN">      0.00100000</i>
     <i name="EBREAK">      0.00000139</i>
     <i name="DEPER">      0.30000000</i>
     <i type="int" name="NRMM">     4</i>
     <i name="TIME">      0.40000000</i>
    </separator>
   </separator>
   <separator name="electronic mixer" >
    <i name="AMIX">      0.40000000</i>
    <i name="BMIX">      1.00000000</i>
    <i name="AMIN">      0.10000000</i>
    <i name="AMIX_MAG">      1.60000000</i>
    <i name="BMIX_MAG">      1.00000000</i>
    <separator name="electronic mixer details" >
     <i type="int" name="IMIX">     4</i>
     <i type="int" name="MAXMIX">   -45</i>
     <i name="WC">    100.00000000</i>
     <i type="int" name="INIMIX">     1</i>
     <i type="int" name="MIXPRE">     1</i>
     <i type="int" name="MREMOVE">     5</i>
    </separator>
   </separator>
   <separator name="electronic dipolcorrection" >
    <i type="logical" name="LDIPOL"> F  </i>
    <i type="logical" name="LMONO"> F  </i>
    <i type="int" name="IDIPOL">     0</i>
    <i name="EPSILON">      1.00000000</i>
    <v name="DIPOL">   -100.00000000   -100.00000000   -100.00000000</v>
    <i name="EFIELD">      0.00000000</i>
   </separator>
  </separator>
  <separator name="grids" >
   <i type="int" name="NGX">    24</i>
   <i type="int" name="NGY">    24</i>
   <i type="int" name="NGZ">    24</i>
   <i type="int" name="NGXF">    48</i>
   <i type="int" name="NGYF">    48</i>
   <i type="int" name="NGZF">    48</i>
   <i type="logical" name="ADDGRID"> F  </i>
  </separator>
  <separator name="ionic" >
   <i type="int" name="NSW">    60</i>
   <i type="int" name="IBRION">     2</i>
   <i type="int" name="ISIF">     3</i>
   <i name="PSTRESS">      0.00000000</i>
   <i name="EDIFFG">      0.00100000</i>
   <i type="int" name="NFREE">     1</i>
   <i name="POTIM">      0.50000000</i>
   <i name="SMASS">     -3.00000000</i>
   <i name="SCALEE">      1.00000000</i>
  </separator>
  <separator name="ionic md" >
   <i name="TEBEG">      0.00010000</i>
   <i name="TEEND">      0.00010000</i>
   <i type="int" name="NBLOCK">     1</i>
   <i type="int" name="KBLOCK">    60</i>
   <i type="int" name="NPACO">   256</i>
   <i name="APACO">     16.00000000</i>
  </separator>
  <separator name="symmetry" >
   <i type="int" name="ISYM">     2</i>
   <i name="SYMPREC">      0.00001000</i>
  </separator>
  <separator name="dos" >
   <i type="logical" name="LORBIT"> F  </i>
   <v name="RWIGS">     -1.00000000     -1.00000000</v>
   <i type="int" name="NEDOS">   301</i>
   <i name="EMIN">     10.00000000</i>
   <i name="EMAX">    -10.00000000</i>
   <i name="EFERMI">      0.00000000</i>
  </separator>
  <separator name="writing" >
   <i type="int" name="NWRITE">     2</i>
   <i type="logical" name="LWAVE"> F  </i>
   <i type="logical" name="LCHARG"> T  </i>
   <i type="logical" name="LPARD"> F  </i>
   <i type="logical" name="LVTOT"> F  </i>
   <i type="logical" name="LVHAR"> F  </i>
   <i type="logical" name="LELF"> F  </i>
   <i type="logical" name="LOPTICS"> F  </i>
   <v name="STM">      0.00000000      0.00000000      0.00000000      0.00000000      0.00000000      0.00000000      0.00000000</v>
  </separator>
  <separator name="performance" >
   <i type="int" name="NPAR">     1</i>
   <i type="int" name="NSIM">     4</i>
   <i type="int" name="NBLK">    -1</i>
   <i type="logical" name="LPLANE"> T  </i>
   <i type="logical" name="LSCALAPACK"> F  </i>
   <i type="logical" name="LSCAAWARE"> F  </i>
   <i type="logical" name="LSCALU"> F  </i>
   <i type="logical" name="LASYNC"> F  </i>
   <i type="logical" name="LORBITALREAL"> F  </i>
  </separator>
  <separator name="miscellaneous" >
   <i type="int" name="IDIOT">     3</i>
   <i type="logical" name="LMUSIC"> F  </i>
   <v name="POMASS">    227.02800000    107.86800000</v>
   <v name="DARWINR">      0.00000000      0.00000000</v>
   <v name="DARWINV">      1.00000000      1.00000000</v>
   <i type="logical" name="LCORR"> T  </i>
  </separator>
  <i type="logical" name="GGA_COMPAT"> T  </i>
  <i type="logical" name="LBERRY"> F  </i>
  <i type="int" name="ICORELEVEL">     0</i>
  <i type="logical" name="LDAU"> F  </i>
  <i type="int" name="I_CONSTRAINED_M">     0</i>
  <separator name="electronic exchange-correlation" >
   <i type="string" name="GGA">--</i>
   <i type="int" name="VOSKOWN">     0</i>
   <i type="logical" name="LHFCALC"> F  </i>
   <i type="string" name="PRECFOCK"></i>
   <i type="logical" name="LSYMGRAD"> F  </i>
   <i type="logical" name="LHFONE"> F  </i>
   <i type="logical" name="LRHFCALC"> F  </i>
   <i type="logical" name="LTHOMAS"> F  </i>
   <i type="logical" name="LMODELHF"> F  </i>
   <i name="ENCUT4O">     -1.00000000</i>
   <i type="int" name="EXXOEP">     0</i>
   <i type="int" name="FOURORBIT">     0</i>
   <i name="AEXX">      0.00000000</i>
   <i name="HFALPHA">      0.00000000</i>
   <i name="MCALPHA">      0.00000000</i>
   <i name="ALDAX">      1.00000000</i>
   <i name="AGGAX">      1.00000000</i>
   <i name="ALDAC">      1.00000000</i>
   <i name="AGGAC">      1.00000000</i>
   <i type="int" name="NKREDX">     1</i>
   <i type="int" name="NKREDY">     1</i>
   <i type="int" name="NKREDZ">     1</i>
   <i type="logical" name="SHIFTRED"> F  </i>
   <i type="logical" name="ODDONLY"> F  </i>
   <i type="logical" name="EVENONLY"> F  </i>
   <i type="int" name="LMAXFOCK">     0</i>
   <i type="int" name="NMAXFOCKAE">     0</i>
   <i type="logical" name="LFOCKAEDFT"> F  </i>
   <i name="HFSCREEN">      0.00000000</i>
   <i name="HFSCREENC">      0.00000000</i>
   <i type="int" name="NBANDSGWLOW">     0</i>
  </separator>
  <separator name="vdW DFT" >
   <i type="logical" name="LUSE_VDW"> F  </i>
   <i name="Zab_VDW">     -0.84910000</i>
   <i name="PARAM1">      0.12340000</i>
   <i name="PARAM2">      1.00000000</i>
   <i name="PARAM3">      0.00000000</i>
  </separator>
  <separator name="model GW" >
   <i type="int" name="MODEL_GW">     0</i>
   <i name="MODEL_EPS0">     20.40079719</i>
   <i name="MODEL_ALPHA">      1.00000000</i>
  </separator>
  <separator name="linear response parameters" >
   <i type="logical" name="LEPSILON"> F  </i>
   <i type="logical" name="LRPA"> F  </i>
   <i type="logical" name="LNABLA"> F  </i>
   <i type="logical" name="LVEL"> F  </i>
   <i type="int" name="KINTER">     0</i>
   <i name="CSHIFT">      0.10000000</i>
   <i name="OMEGAMAX">     -1.00000000</i>
   <i name="DEG_THRESHOLD">      0.00200000</i>
  </separator>
  <separator name="orbital magnetization" >
   <i type="logical" name="NUCIND"> F  </i>
   <v name="MAGPOS">      0.00000000      0.00000000      0.00000000</v>
   <i type="logical" name="LNICSALL"> T  </i>
   <i type="logical" name="ORBITALMAG"> F  </i>
   <i type="logical" name="LMAGBLOCH"> F  </i>
   <i type="logical" name="LCHIMAG"> F  </i>
   <i type="logical" name="LGAUGE"> T  </i>
   <i type="int" name="MAGATOM">     0</i>
   <v name="MAGDIPOL">      0.00000000      0.00000000      0.00000000</v>
   <v name="AVECCONST">      0.00000000      0.00000000      0.00000000</v>
  </separator>
  <separator name="response functions" >
   <i type="logical" name="LADDER"> F  </i>
   <i type="logical" name="LHARTREE"> T  </i>
   <i type="int" name="IBSE">     0</i>
   <i type="logical" name="LTCTE"> F  </i>
   <i type="logical" name="LTETE"> F  </i>
   <i type="logical" name="LTRIPLET"> F  </i>
   <i type="logical" name="LFXCEPS"> F  </i>
   <i type="logical" name="L2ORDER"> F  </i>
   <i type="logical" name="LUSEW"> F  </i>
   <i name="ENCUTGW">     -2.00000000</i>
   <i name="ENCUTGWSOFT">     -2.00000000</i>
   <i name="ENCUTLF">     -1.00000000</i>
   <i type="int" name="LMAXMP2">    -1</i>
   <i name="SCISSOR">      0.00000000</i>
   <i type="int" name="NOMEGA">     0</i>
   <i type="int" name="NOMEGAR">     0</i>
   <i type="int" name="NBANDSGW">    -1</i>
   <i type="int" name="NBANDSO">    -1</i>
   <i type="int" name="NBANDSV">    -1</i>
   <i type="int" name="NELM">    60</i>
   <i type="int" name="DIM">     3</i>
   <i type="int" name="ANTIRES">     0</i>
   <i name="OMEGAMAX">    -30.00000000</i>
   <i name="OMEGATL">   -200.00000000</i>
   <i type="int" name="OMEGAGRID">     0</i>
   <i name="CSHIFT">     -0.10000000</i>
   <i type="logical" name="SELFENERGY"> F  </i>
   <i type="logical" name="LSPECTRAL"> F  </i>
   <i type="logical" name="ODDONLYGW"> F  </i>
   <i type="logical" name="EVENONLYGW"> F  </i>
   <i type="int" name="NKREDLFX">     1</i>
   <i type="int" name="NKREDLFY">     1</i>
   <i type="int" name="NKREDLFZ">     1</i>
   <i type="int" name="MAXMEM">  1800</i>
   <i type="int" name="TELESCOPE">     0</i>
  </separator>
 </parameters>
 <atominfo>
  <atoms>       2 </atoms>
  <types>       2 </types>
  <array name="atoms" >
   <dimension dim="1">ion</dimension>
   <field type="string">element</field>
   <field type="int">atomtype</field>
   <set>
    <rc><c>Ac</c><c>   1</c></rc>
    <rc><c>Ag</c><c>   2</c></rc>
   </set>
  </array>
  <array name="atomtypes" >
   <dimension dim="1">type</dimension>
   <field type="int">atomspertype</field>
   <field type="string">element</field>
   <field>mass</field>
   <field>valence</field>
   <field type="string">pseudopotential</field>
   <set>
    <rc><c>   1</c><c>Ac</c><c>    227.02800000</c><c>     11.00000000</c><c>PAW_PBE Ac 06Sep2000                    </c></rc>
    <rc><c>   1</c><c>Ag</c><c>    107.86800000</c><c>     11.00000000</c><c>PAW_PBE Ag 06Sep2000                    </c></rc>
   </set>
  </array>
 </atominfo>
 <structure name="initialpos" >
  <crystal>
   <varray name="basis" >
    <v>       0.00000000       3.23965400       3.23965400 </v>
    <v>       3.23965400       0.00000000       3.23965400 </v>
    <v>       3.23965400       3.23965400       0.00000000 </v>
   </varray>
   <i name="volume">     68.00265731 </i>
   <varray name="rec_basis" >
    <v>      -0.15433747       0.15433747       0.15433747 </v>
    <v>       0.15433747      -0.15433747       0.15433747 </v>
    <v>       0.15433747       0.15433747      -0.15433747 </v>
   </varray>
  </crystal>
  <varray name="positions" >
   <v>       0.00000000       0.00000000       0.00000000 </v>
   <v>       0.50000100       0.50000100       0.50000100 </v>
  </varray>
 </structure>
 <calculation>
  <scstep>
   <time name="dav">   31.72   31.74</time>
   <time name="total">   32.19   32.20</time>
   <energy>
    <i name="alphaZ">    117.79184427 </i>
    <i name="ewald">  -1525.97595329 </i>
    <i name="hartreedc">   -409.06768234 </i>
    <i name="XCdc">    -47.45226295 </i>
    <i name="pawpsdc">   1356.25396662 </i>
    <i name="pawaedc">  -1245.44542245 </i>
    <i name="eentropy">     -0.00003963 </i>
    <i name="bandstr">     20.67684976 </i>
    <i name="atom">   1849.67745644 </i>
    <i name="e_fr_energy">    116.45875643 </i>
    <i name="e_wo_entrp">    116.45879606 </i>
    <i name="e_0_energy">    116.45876964 </i>
   </energy>
  </scstep>
  <scstep>
   <time name="dav">   32.66   32.67</time>
   <time name="total">   32.69   32.71</time>
   <energy>
    <i name="e_fr_energy">      1.70437998 </i>
    <i name="e_wo_entrp">      1.70506718 </i>
    <i name="e_0_energy">      1.70460905 </i>
   </energy>
  </scstep>
  <scstep>
   <time name="dav">   42.93   42.96</time>
   <time name="total">   42.97   43.00</time>
   <energy>
    <i name="e_fr_energy">     -7.15838638 </i>
    <i name="e_wo_entrp">     -7.14910245 </i>
    <i name="e_0_energy">     -7.15529174 </i>
   </energy>
  </scstep>
  <scstep>
   <time name="dav">   50.80   50.82</time>
   <time name="total">   50.83   50.86</time>
   <energy>
    <i name="e_fr_energy">     -7.55263090 </i>
    <i name="e_wo_entrp">     -7.54341347 </i>
    <i name="e_0_energy">     -7.54955842 </i>
   </energy>
  </scstep>
  <scstep>
   <time name="dav">   43.48   43.50</time>
   <time name="total">   47.55   47.58</time>
   <energy>
    <i name="e_fr_energy">     -7.55602137 </i>
    <i name="e_wo_entrp">     -7.54680735 </i>
    <i name="e_0_energy">     -7.55295003 </i>
   </energy>
  </scstep>
  <scstep>
   <time name="diag">    7.60    7.62</time>
   <time name="diis">   32.77   32.81</time>
   <time name="orth">    0.31    0.31</time>
   <time name="total">   45.17   45.24</time>
   <energy>
    <i name="e_fr_energy">     -7.18432144 </i>
    <i name="e_wo_entrp">     -7.17449258 </i>
    <i name="e_0_energy">     -7.18104515 </i>
   </energy>
  </scstep>
  <scstep>
   <time name="diag">    7.54    7.56</time>
   <time name="diis">   35.35   35.41</time>
   <time name="orth">    0.31    0.31</time>
   <time name="total">   47.66   47.75</time>
   <energy>
    <i name="e_fr_energy">     -7.14486964 </i>
    <i name="e_wo_entrp">     -7.13505768 </i>
    <i name="e_0_energy">     -7.14159899 </i>
   </energy>
  </scstep>
  <scstep>
   <time name="diag">    7.51    7.53</time>
   <time name="diis">   34.55   34.57</time>
   <time name="orth">    0.31    0.31</time>
   <time name="total">   46.82   46.87</time>
   <energy>
    <i name="e_fr_energy">     -7.13954151 </i>
    <i name="e_wo_entrp">     -7.12972100 </i>
    <i name="e_0_energy">     -7.13626801 </i>
   </energy>
  </scstep>
  <scstep>
   <time name="diag">    7.45    7.46</time>
   <time name="diis">   32.12   32.13</time>
   <time name="orth">    0.30    0.30</time>
   <time name="total">   44.31   44.34</time>
   <energy>
    <i name="e_fr_energy">     -7.13725155 </i>
    <i name="e_wo_entrp">     -7.12740713 </i>
    <i name="e_0_energy">     -7.13397008 </i>
   </energy>
  </scstep>
  <scstep>
   <time name="diag">    7.43    7.43</time>
   <time name="diis">   33.54   33.56</time>
   <time name="orth">    0.30    0.30</time>
   <time name="total">   45.71   45.74</time>
   <energy>
    <i name="e_fr_energy">     -7.13747424 </i>
    <i name="e_wo_entrp">     -7.12765117 </i>
    <i name="e_0_energy">     -7.13419988 </i>
   </energy>
  </scstep>
  <scstep>
   <time name="diag">    7.49    7.50</time>
   <time name="diis">   30.68   30.70</time>
   <time name="orth">    0.30    0.30</time>
   <time name="total">   42.95   43.00</time>
   <energy>
    <i name="e_fr_energy">     -7.13733102 </i>
    <i name="e_wo_entrp">     -7.12750385 </i>
    <i name="e_0_energy">     -7.13405530 </i>
   </energy>
  </scstep>
  <scstep>
   <time name="diag">    7.46    7.47</time>
   <time name="diis">   22.52   22.56</time>
   <time name="orth">    0.30    0.30</time>
   <time name="total">   30.75   30.79</time>
   <energy>
    <i name="alphaZ">    117.79184427 </i>
    <i name="ewald">  -1525.97595329 </i>
    <i name="hartreedc">   -390.83526684 </i>
    <i name="XCdc">    -47.85953181 </i>
    <i name="pawpsdc">   1370.88489691 </i>
    <i name="pawaedc">  -1265.29593314 </i>
    <i name="eentropy">     -0.00981756 </i>
    <i name="bandstr">   -115.51503131 </i>
    <i name="atom">   1849.67745644 </i>
    <i name="e_fr_energy">     -7.13733633 </i>
    <i name="e_wo_entrp">     -7.12751877 </i>
    <i name="e_0_energy">     -7.13406381 </i>
   </energy>
  </scstep>
  <structure>
   <crystal>
    <varray name="basis" >
     <v>       0.00000000       3.23965400       3.23965400 </v>
     <v>       3.23965400       0.00000000       3.23965400 </v>
     <v>       3.23965400       3.23965400       0.00000000 </v>
    </varray>
    <i name="volume">     68.00265731 </i>
    <varray name="rec_basis" >
     <v>      -0.15433747       0.15433747       0.15433747 </v>
     <v>       0.15433747      -0.15433747       0.15433747 </v>
     <v>       0.15433747       0.15433747      -0.15433747 </v>
    </varray>
   </crystal>
   <varray name="positions" >
    <v>       0.00000000       0.00000000       0.00000000 </v>
    <v>       0.50000100       0.50000100       0.50000100 </v>
   </varray>
  </structure>
  <varray name="forces" >
   <v>       0.00000000       0.00000000       0.00000000 </v>
   <v>       0.00000000       0.00000000       0.00000000 </v>
  </varray>
  <varray name="stress" >
   <v>      11.31527717       0.00000000       0.00000000 </v>
   <v>       0.00000000      11.31527717       0.00000000 </v>
   <v>       0.00000000       0.00000000      11.31527717 </v>
  </varray>
  <energy>
   <i name="e_fr_energy">     -7.13733633 </i>
   <i name="e_wo_entrp">     -7.13406381 </i>
   <i name="e_0_energy">     -0.00981756 </i>
  </energy>
  <time name="totalsc">  524.95  525.68</time>
 </calculation>
 <calculation>
  <scstep>
   <time name="dav">   38.60   38.62</time>
   <time name="total">   43.06   43.09</time>
   <energy>
    <i name="alphaZ">    113.79117231 </i>
    <i name="ewald">  -1508.50055155 </i>
    <i name="hartreedc">   -386.39107533 </i>
    <i name="XCdc">    -48.33025962 </i>
    <i name="pawpsdc">   1370.95209403 </i>
    <i name="pawaedc">  -1265.35231258 </i>
    <i name="eentropy">     -0.00984191 </i>
    <i name="bandstr">   -133.23787678 </i>
    <i name="atom">   1849.67745644 </i>
    <i name="e_fr_energy">     -7.40119499 </i>
    <i name="e_wo_entrp">     -7.39135308 </i>
    <i name="e_0_energy">     -7.39791435 </i>
   </energy>
  </scstep>
  <scstep>
   <time name="diag">    7.45    7.45</time>
   <time name="diis">   31.75   31.77</time>
   <time name="orth">    0.30    0.30</time>
   <time name="total">   43.93   43.95</time>
   <energy>
    <i name="e_fr_energy">     -7.17159426 </i>
    <i name="e_wo_entrp">     -7.16174200 </i>
    <i name="e_0_energy">     -7.16831017 </i>
   </energy>
  </scstep>
  <scstep>
   <time name="diag">    7.46    7.46</time>
   <time name="diis">   34.09   34.11</time>
   <time name="orth">    0.30    0.30</time>
   <time name="total">   46.26   46.29</time>
   <energy>
    <i name="e_fr_energy">     -7.14664074 </i>
    <i name="e_wo_entrp">     -7.13679481 </i>
    <i name="e_0_energy">     -7.14335876 </i>
   </energy>
  </scstep>
  <scstep>
   <time name="diag">    7.44    7.45</time>
   <time name="diis">   33.58   33.59</time>
   <time name="orth">    0.30    0.30</time>
   <time name="total">   45.75   45.78</time>
   <energy>
    <i name="e_fr_energy">     -7.13905755 </i>
    <i name="e_wo_entrp">     -7.12933729 </i>
    <i name="e_0_energy">     -7.13581747 </i>
   </energy>
  </scstep>
  <scstep>
   <time name="diag">    7.47    7.48</time>
   <time name="diis">   34.77   34.79</time>
   <time name="orth">    0.30    0.30</time>
   <time name="total">   47.02   47.07</time>
   <energy>
    <i name="e_fr_energy">     -7.13912146 </i>
    <i name="e_wo_entrp">     -7.12956718 </i>
    <i name="e_0_energy">     -7.13593670 </i>
   </energy>
  </scstep>
  <scstep>
   <time name="diag">    7.57    7.58</time>
   <time name="diis">   35.51   35.57</time>
   <time name="orth">    0.30    0.30</time>
   <time name="total">   47.84   47.93</time>
   <energy>
    <i name="e_fr_energy">     -7.13952776 </i>
    <i name="e_wo_entrp">     -7.13072019 </i>
    <i name="e_0_energy">     -7.13659190 </i>
   </energy>
  </scstep>
  <scstep>
   <time name="diag">    7.57    7.58</time>
   <time name="diis">   28.97   29.06</time>
   <time name="orth">    0.31    0.31</time>
   <time name="total">   41.33   41.44</time>
   <energy>
    <i name="e_fr_energy">     -7.13973316 </i>
    <i name="e_wo_entrp">     -7.13142391 </i>
    <i name="e_0_energy">     -7.13696341 </i>
   </energy>
  </scstep>
  <scstep>
   <time name="diag">    7.60    7.61</time>
   <time name="diis">   28.91   28.95</time>
   <time name="orth">    0.30    0.30</time>
   <time name="total">   41.29   41.35</time>
   <energy>
    <i name="e_fr_energy">     -7.13909819 </i>
    <i name="e_wo_entrp">     -7.12932275 </i>
    <i name="e_0_energy">     -7.13583971 </i>
   </energy>
  </scstep>
  <scstep>
   <time name="diag">    7.50    7.50</time>
   <time name="diis">   25.17   25.18</time>
   <time name="orth">    0.30    0.30</time>
   <time name="total">   37.44   37.45</time>
   <energy>
    <i name="e_fr_energy">     -7.13897995 </i>
    <i name="e_wo_entrp">     -7.12894825 </i>
    <i name="e_0_energy">     -7.13563605 </i>
   </energy>
  </scstep>
  <scstep>
   <time name="diag">    7.47    7.47</time>
   <time name="diis">   20.80   20.80</time>
   <time name="orth">    0.30    0.30</time>
   <time name="total">   29.03   29.04</time>
   <energy>
    <i name="alphaZ">    113.79117231 </i>
    <i name="ewald">  -1508.50055155 </i>
    <i name="hartreedc">   -399.27854042 </i>
    <i name="XCdc">    -48.03775860 </i>
    <i name="pawpsdc">   1367.78937909 </i>
    <i name="pawaedc">  -1261.95302669 </i>
    <i name="eentropy">     -0.01002345 </i>
    <i name="bandstr">   -120.61708431 </i>
    <i name="atom">   1849.67745644 </i>
    <i name="e_fr_energy">     -7.13897720 </i>
    <i name="e_wo_entrp">     -7.12895375 </i>
    <i name="e_0_energy">     -7.13563605 </i>
   </energy>
  </scstep>
  <structure>
   <crystal>
    <varray name="basis" >
     <v>       0.00000000       3.27718415       3.27718415 </v>
     <v>       3.27718415       0.00000000       3.27718415 </v>
     <v>       3.27718415       3.27718415       0.00000000 </v>
    </varray>
    <i name="volume">     70.39349589 </i>
    <varray name="rec_basis" >
     <v>      -0.15257000       0.15257000       0.15257000 </v>
     <v>       0.15257000      -0.15257000       0.15257000 </v>
     <v>       0.15257000       0.15257000      -0.15257000 </v>
    </varray>
   </crystal>
   <varray name="positions" >
    <v>       0.00000000       0.00000000       0.00000000 </v>
    <v>       0.50000100       0.50000100       0.50000100 </v>
   </varray>
  </structure>
  <varray name="forces" >
   <v>       0.00000000       0.00000000       0.00000000 </v>
   <v>       0.00000000       0.00000000       0.00000000 </v>
  </varray>
  <varray name="stress" >
   <v>      -6.56658115       0.00000000       0.00000000 </v>
   <v>       0.00000000      -6.56658115       0.00000000 </v>
   <v>       0.00000000       0.00000000      -6.56658115 </v>
  </varray>
  <energy>
   <i name="e_fr_energy">     -7.13897720 </i>
   <i name="e_wo_entrp">     -7.13563605 </i>
   <i name="e_0_energy">     -0.01002345 </i>
  </energy>
  <time name="totalsc">  437.87  438.32</time>
 </calculation>
 <calculation>
  <scstep>
   <time name="dav">   42.51   42.52</time>
   <time name="total">   46.98   46.99</time>
   <energy>
    <i name="alphaZ">    115.64810979 </i>
    <i name="ewald">  -1516.66196528 </i>
    <i name="hartreedc">   -401.45480811 </i>
    <i name="XCdc">    -47.81117710 </i>
    <i name="pawpsdc">   1367.78028298 </i>
    <i name="pawaedc">  -1261.96534988 </i>
    <i name="eentropy">     -0.00979428 </i>
    <i name="bandstr">   -112.40521245 </i>
    <i name="atom">   1849.67745644 </i>
    <i name="e_fr_energy">     -7.20245787 </i>
    <i name="e_wo_entrp">     -7.19266360 </i>
    <i name="e_0_energy">     -7.19919312 </i>
   </energy>
  </scstep>
  <scstep>
   <time name="diag">    7.42    7.42</time>
   <time name="diis">   30.81   30.81</time>
   <time name="orth">    0.30    0.30</time>
   <time name="total">   42.97   42.99</time>
   <energy>
    <i name="e_fr_energy">     -7.15039805 </i>
    <i name="e_wo_entrp">     -7.14040073 </i>
    <i name="e_0_energy">     -7.14706561 </i>
   </energy>
  </scstep>
  <scstep>
   <time name="diag">    7.47    7.47</time>
   <time name="diis">   31.94   31.94</time>
   <time name="orth">    0.30    0.30</time>
   <time name="total">   44.16   44.18</time>
   <energy>
    <i name="e_fr_energy">     -7.14350932 </i>
    <i name="e_wo_entrp">     -7.13352304 </i>
    <i name="e_0_energy">     -7.14018056 </i>
   </energy>
  </scstep>
  <scstep>
   <time name="diag">    7.47    7.47</time>
   <time name="diis">   33.53   33.56</time>
   <time name="orth">    0.29    0.30</time>
   <time name="total">   45.72   45.75</time>
   <energy>
    <i name="e_fr_energy">     -7.14167597 </i>
    <i name="e_wo_entrp">     -7.13171222 </i>
    <i name="e_0_energy">     -7.13835472 </i>
   </energy>
  </scstep>
  <scstep>
   <time name="diag">    7.44    7.45</time>
   <time name="diis">   32.21   32.23</time>
   <time name="orth">    0.30    0.30</time>
   <time name="total">   44.37   44.40</time>
   <energy>
    <i name="e_fr_energy">     -7.14167336 </i>
    <i name="e_wo_entrp">     -7.13172722 </i>
    <i name="e_0_energy">     -7.13835798 </i>
   </energy>
  </scstep>
  <scstep>
   <time name="diag">    7.44    7.44</time>
   <time name="diis">   25.13   25.14</time>
   <time name="orth">    0.30    0.30</time>
   <time name="total">   33.33   33.36</time>
   <energy>
    <i name="alphaZ">    115.64810979 </i>
    <i name="ewald">  -1516.66196528 </i>
    <i name="hartreedc">   -395.41148736 </i>
    <i name="XCdc">    -47.94961848 </i>
    <i name="pawpsdc">   1369.03791730 </i>
    <i name="pawaedc">  -1263.34245389 </i>
    <i name="eentropy">     -0.00987971 </i>
    <i name="bandstr">   -118.12981427 </i>
    <i name="atom">   1849.67745644 </i>
    <i name="e_fr_energy">     -7.14173545 </i>
    <i name="e_wo_entrp">     -7.13185574 </i>
    <i name="e_0_energy">     -7.13844222 </i>
   </energy>
  </scstep>
  <structure>
   <crystal>
    <varray name="basis" >
     <v>       0.00000000       3.25954907       3.25954907 </v>
     <v>       3.25954907       0.00000000       3.25954907 </v>
     <v>       3.25954907       3.25954907       0.00000000 </v>
    </varray>
    <i name="volume">     69.26320226 </i>
    <varray name="rec_basis" >
     <v>      -0.15339545       0.15339545       0.15339545 </v>
     <v>       0.15339545      -0.15339545       0.15339545 </v>
     <v>       0.15339545       0.15339545      -0.15339545 </v>
    </varray>
   </crystal>
   <varray name="positions" >
    <v>       0.00000000       0.00000000       0.00000000 </v>
    <v>       0.50000100       0.50000100       0.50000100 </v>
   </varray>
  </structure>
  <varray name="forces" >
   <v>       0.00000000       0.00000000       0.00000000 </v>
   <v>       0.00000000       0.00000000       0.00000000 </v>
  </varray>
  <varray name="stress" >
   <v>      -2.02429105       0.00000000       0.00000000 </v>
   <v>       0.00000000      -2.02429105       0.00000000 </v>
   <v>       0.00000000       0.00000000      -2.02429105 </v>
  </varray>
  <energy>
   <i name="e_fr_energy">     -7.14173545 </i>
   <i name="e_wo_entrp">     -7.13844222 </i>
   <i name="e_0_energy">     -0.00987971 </i>
  </energy>
  <time name="totalsc">  271.52  271.66</time>
  <eigenvalues>
   <array>
    <dimension dim="1">band</dimension>
    <dimension dim="2">kpoint</dimension>
    <dimension dim="3">spin</dimension>
    <field>eigene</field>
    <field>occ</field>
    <set>
     <set comment="spin 1">
      <set comment="kpoint 1">
       <r>  -30.8470    1.0000 </r>
       <r>  -10.5534    1.0000 </r>
       <r>  -10.5534    1.0000 </r>
       <r>  -10.5534    1.0000 </r>
       <r>   -0.6674    1.0000 </r>
       <r>   -0.6674    1.0000 </r>
       <r>   -0.4786    1.0000 </r>
       <r>   -0.4786    1.0000 </r>
       <r>   -0.4786    1.0000 </r>
       <r>   -0.4785    1.0000 </r>
       <r>    6.6661    0.0000 </r>
       <r>    6.6661    0.0000 </r>
       <r>    6.6661    0.0000 </r>
       <r>    7.7891    0.0000 </r>
       <r>    7.7891    0.0000 </r>
       <r>    7.7892    0.0000 </r>
       <r>    7.8211    0.0000 </r>
       <r>    8.3581    0.0000 </r>
      </set>
      <set comment="kpoint 2">
       <r>  -30.8464    1.0000 </r>
       <r>  -10.5704    1.0000 </r>
       <r>  -10.5567    1.0000 </r>
       <r>  -10.5567    1.0000 </r>
       <r>   -0.6524    1.0000 </r>
       <r>   -0.6524    1.0000 </r>
       <r>   -0.4737    1.0000 </r>
       <r>   -0.4710    1.0000 </r>
       <r>   -0.4710    1.0000 </r>
       <r>   -0.4064    1.0000 </r>
       <r>    6.4559    0.0000 </r>
       <r>    6.6501    0.0000 </r>
       <r>    6.6501    0.0000 </r>
       <r>    7.5437    0.0000 </r>
       <r>    7.5438    0.0000 </r>
       <r>    7.7610    0.0000 </r>
       <r>    8.0008    0.0000 </r>
       <r>    8.6157    0.0000 </r>
      </set>
      <set comment="kpoint 3">
       <r>  -30.8449    1.0000 </r>
       <r>  -10.6183    1.0000 </r>
       <r>  -10.5661    1.0000 </r>
       <r>  -10.5661    1.0000 </r>
       <r>   -0.6092    1.0000 </r>
       <r>   -0.6092    1.0000 </r>
       <r>   -0.4620    1.0000 </r>
       <r>   -0.4494    1.0000 </r>
       <r>   -0.4494    1.0000 </r>
       <r>   -0.1955    1.0000 </r>
       <r>    6.0132    0.0000 </r>
       <r>    6.5237    0.0000 </r>
       <r>    6.5237    0.0000 </r>
       <r>    7.2863    0.0000 </r>
       <r>    7.2863    0.0000 </r>
       <r>    7.6775    0.0000 </r>
       <r>    8.3689    0.0000 </r>
       <r>    8.9880    0.0000 </r>
      </set>
      <set comment="kpoint 4">
       <r>  -30.8425    1.0000 </r>
       <r>  -10.6883    1.0000 </r>
       <r>  -10.5801    1.0000 </r>
       <r>  -10.5801    1.0000 </r>
       <r>   -0.5431    1.0000 </r>
       <r>   -0.5431    1.0000 </r>
       <r>   -0.4427    1.0000 </r>
       <r>   -0.4155    1.0000 </r>
       <r>   -0.4155    1.0000 </r>
       <r>    0.1388    1.0000 </r>
       <r>    5.4976   -0.0004 </r>
       <r>    6.2000    0.0000 </r>
       <r>    6.2000    0.0000 </r>
       <r>    7.2863    0.0000 </r>
       <r>    7.2864    0.0000 </r>
       <r>    7.5898    0.0000 </r>
       <r>    8.7544    0.0000 </r>
       <r>    9.2962    0.0000 </r>
      </set>
      <set comment="kpoint 5">
       <r>  -30.8398    1.0000 </r>
       <r>  -10.7685    1.0000 </r>
       <r>  -10.5965    1.0000 </r>
       <r>  -10.5965    1.0000 </r>
       <r>   -0.4640    1.0000 </r>
       <r>   -0.4640    1.0000 </r>
       <r>   -0.4180    1.0000 </r>
       <r>   -0.3782    1.0000 </r>
       <r>   -0.3782    1.0000 </r>
       <r>    0.5727    1.0000 </r>
       <r>    4.9634    0.4598 </r>
       <r>    5.8105    0.0000 </r>
       <r>    5.8105    0.0000 </r>
       <r>    7.4514    0.0000 </r>
       <r>    7.4515    0.0000 </r>
       <r>    7.5420    0.0000 </r>
       <r>    9.0963    0.0000 </r>
       <r>    9.5241    0.0000 </r>
      </set>
      <set comment="kpoint 6">
       <r>  -30.8371    1.0000 </r>
       <r>  -10.8464    1.0000 </r>
       <r>  -10.6128    1.0000 </r>
       <r>  -10.6128    1.0000 </r>
       <r>   -0.3878    1.0000 </r>
       <r>   -0.3807    1.0000 </r>
       <r>   -0.3807    1.0000 </r>
       <r>   -0.3394    1.0000 </r>
       <r>   -0.3394    1.0000 </r>
       <r>    1.0748    1.0000 </r>
       <r>    4.4368    1.0008 </r>
       <r>    5.4568   -0.0011 </r>
       <r>    5.4569   -0.0011 </r>
       <r>    7.5678    0.0000 </r>
       <r>    7.7017    0.0000 </r>
       <r>    7.7018    0.0000 </r>
       <r>    9.3738    0.0000 </r>
       <r>    9.6006    0.0000 </r>
      </set>
      <set comment="kpoint 7">
       <r>  -30.8347    1.0000 </r>
       <r>  -10.9106    1.0000 </r>
       <r>  -10.6265    1.0000 </r>
       <r>  -10.6265    1.0000 </r>
       <r>   -0.3585    1.0000 </r>
       <r>   -0.3109    1.0000 </r>
       <r>   -0.3109    1.0000 </r>
       <r>   -0.3025    1.0000 </r>
       <r>   -0.3025    1.0000 </r>
       <r>    1.6058    1.0000 </r>
       <r>    3.9320    1.0000 </r>
       <r>    5.1802   -0.0339 </r>
       <r>    5.1802   -0.0339 </r>
       <r>    7.6881    0.0000 </r>
       <r>    8.0026    0.0000 </r>
       <r>    8.0027    0.0000 </r>
       <r>    9.4033    0.0000 </r>
       <r>    9.4331    0.0000 </r>
      </set>
      <set comment="kpoint 8">
       <r>  -30.8332    1.0000 </r>
       <r>  -10.9526    1.0000 </r>
       <r>  -10.6356    1.0000 </r>
       <r>  -10.6356    1.0000 </r>
       <r>   -0.3359    1.0000 </r>
       <r>   -0.2857    1.0000 </r>
       <r>   -0.2857    1.0000 </r>
       <r>   -0.2541    1.0000 </r>
       <r>   -0.2541    1.0000 </r>
       <r>    2.1070    1.0000 </r>
       <r>    3.4708    1.0000 </r>
       <r>    5.0042    0.2945 </r>
       <r>    5.0042    0.2944 </r>
       <r>    7.8953    0.0000 </r>
       <r>    8.3167    0.0000 </r>
       <r>    8.3167    0.0000 </r>
       <r>    9.1517    0.0000 </r>
       <r>    9.1594    0.0000 </r>
      </set>
      <set comment="kpoint 9">
       <r>  -30.8327    1.0000 </r>
       <r>  -10.9672    1.0000 </r>
       <r>  -10.6388    1.0000 </r>
       <r>  -10.6388    1.0000 </r>
       <r>   -0.3289    1.0000 </r>
       <r>   -0.2780    1.0000 </r>
       <r>   -0.2780    1.0000 </r>
       <r>   -0.2361    1.0000 </r>
       <r>   -0.2361    1.0000 </r>
       <r>    2.3853    1.0000 </r>
       <r>    3.2107    1.0000 </r>
       <r>    4.9438    0.5427 </r>
       <r>    4.9438    0.5427 </r>
       <r>    8.0416    0.0000 </r>
       <r>    8.5083    0.0000 </r>
       <r>    8.5088    0.0000 </r>
       <r>    8.9809    0.0000 </r>
       <r>    8.9908    0.0000 </r>
      </set>
      <set comment="kpoint 10">
       <r>  -30.8463    1.0000 </r>
       <r>  -10.5735    1.0000 </r>
       <r>  -10.5589    1.0000 </r>
       <r>  -10.5589    1.0000 </r>
       <r>   -0.6628    1.0000 </r>
       <r>   -0.6396    1.0000 </r>
       <r>   -0.4864    1.0000 </r>
       <r>   -0.4620    1.0000 </r>
       <r>   -0.4620    1.0000 </r>
       <r>   -0.3751    1.0000 </r>
       <r>    6.5075    0.0000 </r>
       <r>    6.5953    0.0000 </r>
       <r>    6.5953    0.0000 </r>
       <r>    7.1215    0.0000 </r>
       <r>    7.9136    0.0000 </r>
       <r>    7.9136    0.0000 </r>
       <r>    8.0055    0.0000 </r>
       <r>    8.3763    0.0000 </r>
      </set>
      <set comment="kpoint 11">
       <r>  -30.8450    1.0000 </r>
       <r>  -10.6094    1.0000 </r>
       <r>  -10.5673    1.0000 </r>
       <r>  -10.5663    1.0000 </r>
       <r>   -0.6433    1.0000 </r>
       <r>   -0.6057    1.0000 </r>
       <r>   -0.4870    1.0000 </r>
       <r>   -0.4410    1.0000 </r>
       <r>   -0.4390    1.0000 </r>
       <r>   -0.2001    1.0000 </r>
       <r>    6.1647    0.0000 </r>
       <r>    6.4917    0.0000 </r>
       <r>    6.5058    0.0000 </r>
       <r>    6.8205    0.0000 </r>
       <r>    7.7780    0.0000 </r>
       <r>    7.8989    0.0000 </r>
       <r>    8.3095    0.0000 </r>
       <r>    8.6643    0.0000 </r>
      </set>
      <set comment="kpoint 12">
       <r>  -30.8430    1.0000 </r>
       <r>  -10.6704    1.0000 </r>
       <r>  -10.5806    1.0000 </r>
       <r>  -10.5786    1.0000 </r>
       <r>   -0.5975    1.0000 </r>
       <r>   -0.5437    1.0000 </r>
       <r>   -0.4758    1.0000 </r>
       <r>   -0.4123    1.0000 </r>
       <r>   -0.4060    1.0000 </r>
       <r>    0.0965    1.0000 </r>
       <r>    5.6548    0.0000 </r>
       <r>    6.1182    0.0000 </r>
       <r>    6.3075    0.0000 </r>
       <r>    6.9130    0.0000 </r>
       <r>    7.6505    0.0000 </r>
       <r>    7.8109    0.0000 </r>
       <r>    8.6735    0.0000 </r>
       <r>    9.0365    0.0000 </r>
      </set>
      <set comment="kpoint 13">
       <r>  -30.8404    1.0000 </r>
       <r>  -10.7452    1.0000 </r>
       <r>  -10.5965    1.0000 </r>
       <r>  -10.5946    1.0000 </r>
       <r>   -0.5300    1.0000 </r>
       <r>   -0.4651    1.0000 </r>
       <r>   -0.4525    1.0000 </r>
       <r>   -0.3797    1.0000 </r>
       <r>   -0.3681    1.0000 </r>
       <r>    0.4952    1.0000 </r>
       <r>    5.1017    0.0273 </r>
       <r>    5.7539    0.0000 </r>
       <r>    6.0005    0.0000 </r>
       <r>    7.0974    0.0000 </r>
       <r>    7.7032    0.0000 </r>
       <r>    7.7390    0.0000 </r>
       <r>    9.0145    0.0000 </r>
       <r>    9.3273    0.0000 </r>
      </set>
      <set comment="kpoint 14">
       <r>  -30.8376    1.0000 </r>
       <r>  -10.8217    1.0000 </r>
       <r>  -10.6128    1.0000 </r>
       <r>  -10.6118    1.0000 </r>
       <r>   -0.4502    1.0000 </r>
       <r>   -0.4218    1.0000 </r>
       <r>   -0.3821    1.0000 </r>
       <r>   -0.3447    1.0000 </r>
       <r>   -0.3306    1.0000 </r>
       <r>    0.9700    1.0000 </r>
       <r>    4.5582    1.0086 </r>
       <r>    5.4402   -0.0016 </r>
       <r>    5.6638    0.0000 </r>
       <r>    7.3149    0.0000 </r>
       <r>    7.7508    0.0000 </r>
       <r>    7.8857    0.0000 </r>
       <r>    9.3001    0.0000 </r>
       <r>    9.5072    0.0000 </r>
      </set>
      <set comment="kpoint 15">
       <r>  -30.8352    1.0000 </r>
       <r>  -10.8886    1.0000 </r>
       <r>  -10.6277    1.0000 </r>
       <r>  -10.6269    1.0000 </r>
       <r>   -0.3859    1.0000 </r>
       <r>   -0.3687    1.0000 </r>
       <r>   -0.3159    1.0000 </r>
       <r>   -0.3106    1.0000 </r>
       <r>   -0.2993    1.0000 </r>
       <r>    1.4876    1.0000 </r>
       <r>    4.0418    1.0000 </r>
       <r>    5.1964   -0.0354 </r>
       <r>    5.3626   -0.0069 </r>
       <r>    7.5238    0.0000 </r>
       <r>    7.9105    0.0000 </r>
       <r>    8.1413    0.0000 </r>
       <r>    9.3682    0.0000 </r>
       <r>    9.5235    0.0000 </r>
      </set>
      <set comment="kpoint 16">
       <r>  -30.8334    1.0000 </r>
       <r>  -10.9367    1.0000 </r>
       <r>  -10.6399    1.0000 </r>
       <r>  -10.6367    1.0000 </r>
       <r>   -0.3518    1.0000 </r>
       <r>   -0.2992    1.0000 </r>
       <r>   -0.2949    1.0000 </r>
       <r>   -0.2771    1.0000 </r>
       <r>   -0.2652    1.0000 </r>
       <r>    2.0053    1.0000 </r>
       <r>    3.5590    1.0000 </r>
       <r>    5.0400    0.1705 </r>
       <r>    5.1358   -0.0130 </r>
       <r>    7.7381    0.0000 </r>
       <r>    8.2002    0.0000 </r>
       <r>    8.4147    0.0000 </r>
       <r>    9.1156    0.0000 </r>
       <r>    9.1850    0.0000 </r>
      </set>
      <set comment="kpoint 17">
       <r>  -30.8325    1.0000 </r>
       <r>  -10.9598    1.0000 </r>
       <r>  -10.6465    1.0000 </r>
       <r>  -10.6408    1.0000 </r>
       <r>   -0.3315    1.0000 </r>
       <r>   -0.2849    1.0000 </r>
       <r>   -0.2750    1.0000 </r>
       <r>   -0.2529    1.0000 </r>
       <r>   -0.2488    1.0000 </r>
       <r>    2.4240    1.0000 </r>
       <r>    3.1684    1.0000 </r>
       <r>    4.9813    0.3853 </r>
       <r>    5.0080    0.2804 </r>
       <r>    7.9655    0.0000 </r>
       <r>    8.4872    0.0000 </r>
       <r>    8.5178    0.0000 </r>
       <r>    8.8762    0.0000 </r>
       <r>    9.0017    0.0000 </r>
      </set>
      <set comment="kpoint 18">
       <r>  -30.8327    1.0000 </r>
       <r>  -10.9551    1.0000 </r>
       <r>  -10.6466    1.0000 </r>
       <r>  -10.6387    1.0000 </r>
       <r>   -0.3322    1.0000 </r>
       <r>   -0.2847    1.0000 </r>
       <r>   -0.2832    1.0000 </r>
       <r>   -0.2752    1.0000 </r>
       <r>   -0.2363    1.0000 </r>
       <r>    2.3187    1.0000 </r>
       <r>    3.2702    1.0000 </r>
       <r>    4.9938    0.3351 </r>
       <r>    5.0215    0.2315 </r>
       <r>    7.9712    0.0000 </r>
       <r>    8.2496    0.0000 </r>
       <r>    8.6178    0.0000 </r>
       <r>    8.8211    0.0000 </r>
       <r>    9.1941    0.0000 </r>
      </set>
      <set comment="kpoint 19">
       <r>  -30.8339    1.0000 </r>
       <r>  -10.9231    1.0000 </r>
       <r>  -10.6402    1.0000 </r>
       <r>  -10.6305    1.0000 </r>
       <r>   -0.3537    1.0000 </r>
       <r>   -0.3340    1.0000 </r>
       <r>   -0.3057    1.0000 </r>
       <r>   -0.2877    1.0000 </r>
       <r>   -0.2597    1.0000 </r>
       <r>    1.8431    1.0000 </r>
       <r>    3.7162    1.0000 </r>
       <r>    5.0980    0.0332 </r>
       <r>    5.1523   -0.0242 </r>
       <r>    7.7997    0.0000 </r>
       <r>    7.9030    0.0000 </r>
       <r>    8.4071    0.0000 </r>
       <r>    9.0938    0.0000 </r>
       <r>    9.4754    0.0000 </r>
      </set>
      <set comment="kpoint 20">
       <r>  -30.8360    1.0000 </r>
       <r>  -10.8679    1.0000 </r>
       <r>  -10.6281    1.0000 </r>
       <r>  -10.6176    1.0000 </r>
       <r>   -0.4092    1.0000 </r>
       <r>   -0.3848    1.0000 </r>
       <r>   -0.3382    1.0000 </r>
       <r>   -0.3142    1.0000 </r>
       <r>   -0.3074    1.0000 </r>
       <r>    1.3157    1.0000 </r>
       <r>    4.2201    1.0000 </r>
       <r>    5.3155   -0.0141 </r>
       <r>    5.3580   -0.0075 </r>
       <r>    7.5728    0.0000 </r>
       <r>    7.6971    0.0000 </r>
       <r>    8.1081    0.0000 </r>
       <r>    9.3858    0.0000 </r>
       <r>    9.4584    0.0000 </r>
      </set>
      <set comment="kpoint 21">
       <r>  -30.8386    1.0000 </r>
       <r>  -10.7968    1.0000 </r>
       <r>  -10.6121    1.0000 </r>
       <r>  -10.6018    1.0000 </r>
       <r>   -0.4898    1.0000 </r>
       <r>   -0.4174    1.0000 </r>
       <r>   -0.3901    1.0000 </r>
       <r>   -0.3758    1.0000 </r>
       <r>   -0.3379    1.0000 </r>
       <r>    0.8034    1.0000 </r>
       <r>    4.7539    1.0252 </r>
       <r>    5.6160    0.0000 </r>
       <r>    5.6335    0.0000 </r>
       <r>    7.2855    0.0000 </r>
       <r>    7.6951    0.0000 </r>
       <r>    7.8416    0.0000 </r>
       <r>    9.2093    0.0000 </r>
       <r>    9.4464    0.0000 </r>
      </set>
      <set comment="kpoint 22">
       <r>  -30.8413    1.0000 </r>
       <r>  -10.7198    1.0000 </r>
       <r>  -10.5946    1.0000 </r>
       <r>  -10.5854    1.0000 </r>
       <r>   -0.5636    1.0000 </r>
       <r>   -0.4728    1.0000 </r>
       <r>   -0.4442    1.0000 </r>
       <r>   -0.4133    1.0000 </r>
       <r>   -0.3748    1.0000 </r>
       <r>    0.3459    1.0000 </r>
       <r>    5.3048   -0.0162 </r>
       <r>    5.8980    0.0000 </r>
       <r>    6.0337    0.0000 </r>
       <r>    7.0535    0.0000 </r>
       <r>    7.6418    0.0000 </r>
       <r>    7.7708    0.0000 </r>
       <r>    8.9093    0.0000 </r>
       <r>    9.2237    0.0000 </r>
      </set>
      <set comment="kpoint 23">
       <r>  -30.8437    1.0000 </r>
       <r>  -10.6488    1.0000 </r>
       <r>  -10.5780    1.0000 </r>
       <r>  -10.5711    1.0000 </r>
       <r>   -0.6187    1.0000 </r>
       <r>   -0.5508    1.0000 </r>
       <r>   -0.4634    1.0000 </r>
       <r>   -0.4450    1.0000 </r>
       <r>   -0.4121    1.0000 </r>
       <r>   -0.0247    1.0000 </r>
       <r>    5.8405    0.0000 </r>
       <r>    6.1721    0.0000 </r>
       <r>    6.4860    0.0000 </r>
       <r>    6.8903    0.0000 </r>
       <r>    7.5388    0.0000 </r>
       <r>    7.8713    0.0000 </r>
       <r>    8.5737    0.0000 </r>
       <r>    8.9064    0.0000 </r>
      </set>
      <set comment="kpoint 24">
       <r>  -30.8455    1.0000 </r>
       <r>  -10.5959    1.0000 </r>
       <r>  -10.5646    1.0000 </r>
       <r>  -10.5610    1.0000 </r>
       <r>   -0.6486    1.0000 </r>
       <r>   -0.6133    1.0000 </r>
       <r>   -0.4732    1.0000 </r>
       <r>   -0.4648    1.0000 </r>
       <r>   -0.4464    1.0000 </r>
       <r>   -0.2830    1.0000 </r>
       <r>    6.2628    0.0000 </r>
       <r>    6.4343    0.0000 </r>
       <r>    6.7100    0.0000 </r>
       <r>    7.0504    0.0000 </r>
       <r>    7.5508    0.0000 </r>
       <r>    7.8846    0.0000 </r>
       <r>    8.2412    0.0000 </r>
       <r>    8.6410    0.0000 </r>
      </set>
      <set comment="kpoint 25">
       <r>  -30.8442    1.0000 </r>
       <r>  -10.6275    1.0000 </r>
       <r>  -10.5746    1.0000 </r>
       <r>  -10.5746    1.0000 </r>
       <r>   -0.6498    1.0000 </r>
       <r>   -0.5973    1.0000 </r>
       <r>   -0.5076    1.0000 </r>
       <r>   -0.4164    1.0000 </r>
       <r>   -0.4163    1.0000 </r>
       <r>   -0.0503    1.0000 </r>
       <r>    6.1640    0.0000 </r>
       <r>    6.1984    0.0000 </r>
       <r>    6.4721    0.0000 </r>
       <r>    6.4721    0.0000 </r>
       <r>    8.1948    0.0000 </r>
       <r>    8.1949    0.0000 </r>
       <r>    8.3835    0.0000 </r>
       <r>    8.4145    0.0000 </r>
      </set>
      <set comment="kpoint 26">
       <r>  -30.8425    1.0000 </r>
       <r>  -10.6728    1.0000 </r>
       <r>  -10.5868    1.0000 </r>
       <r>  -10.5863    1.0000 </r>
       <r>   -0.6272    1.0000 </r>
       <r>   -0.5585    1.0000 </r>
       <r>   -0.5145    1.0000 </r>
       <r>   -0.3864    1.0000 </r>
       <r>   -0.3846    1.0000 </r>
       <r>    0.2131    1.0000 </r>
       <r>    5.6323    0.0000 </r>
       <r>    5.9353    0.0000 </r>
       <r>    6.3798    0.0000 </r>
       <r>    6.5764    0.0000 </r>
       <r>    8.0750    0.0000 </r>
       <r>    8.2139    0.0000 </r>
       <r>    8.6785    0.0000 </r>
       <r>    8.7507    0.0000 </r>
      </set>
      <set comment="kpoint 27">
       <r>  -30.8402    1.0000 </r>
       <r>  -10.7347    1.0000 </r>
       <r>  -10.6022    1.0000 </r>
       <r>  -10.6019    1.0000 </r>
       <r>   -0.5798    1.0000 </r>
       <r>   -0.5062    1.0000 </r>
       <r>   -0.4920    1.0000 </r>
       <r>   -0.3549    1.0000 </r>
       <r>   -0.3489    1.0000 </r>
       <r>    0.5665    1.0000 </r>
       <r>    5.0866    0.0536 </r>
       <r>    5.6484    0.0000 </r>
       <r>    6.1875    0.0000 </r>
       <r>    6.7734    0.0000 </r>
       <r>    8.0150    0.0000 </r>
       <r>    8.1452    0.0000 </r>
       <r>    8.9883    0.0000 </r>
       <r>    9.1038    0.0000 </r>
      </set>
      <set comment="kpoint 28">
       <r>  -30.8376    1.0000 </r>
       <r>  -10.8019    1.0000 </r>
       <r>  -10.6209    1.0000 </r>
       <r>  -10.6177    1.0000 </r>
       <r>   -0.5126    1.0000 </r>
       <r>   -0.4814    1.0000 </r>
       <r>   -0.4157    1.0000 </r>
       <r>   -0.3242    1.0000 </r>
       <r>   -0.3142    1.0000 </r>
       <r>    0.9906    1.0000 </r>
       <r>    4.5672    1.0098 </r>
       <r>    5.4021   -0.0034 </r>
       <r>    5.9167    0.0000 </r>
       <r>    7.0034    0.0000 </r>
       <r>    8.1027    0.0000 </r>
       <r>    8.1102    0.0000 </r>
       <r>    9.2592    0.0000 </r>
       <r>    9.3359    0.0000 </r>
      </set>
      <set comment="kpoint 29">
       <r>  -30.8352    1.0000 </r>
       <r>  -10.8638    1.0000 </r>
       <r>  -10.6399    1.0000 </r>
       <r>  -10.6317    1.0000 </r>
       <r>   -0.4454    1.0000 </r>
       <r>   -0.4342    1.0000 </r>
       <r>   -0.3480    1.0000 </r>
       <r>   -0.2997    1.0000 </r>
       <r>   -0.2849    1.0000 </r>
       <r>    1.4609    1.0000 </r>
       <r>    4.0820    1.0000 </r>
       <r>    5.2175   -0.0343 </r>
       <r>    5.6290    0.0000 </r>
       <r>    7.2446    0.0000 </r>
       <r>    8.1580    0.0000 </r>
       <r>    8.3087    0.0000 </r>
       <r>    9.3104    0.0000 </r>
       <r>    9.4622    0.0000 </r>
      </set>
      <set comment="kpoint 30">
       <r>  -30.8333    1.0000 </r>
       <r>  -10.9117    1.0000 </r>
       <r>  -10.6563    1.0000 </r>
       <r>  -10.6418    1.0000 </r>
       <r>   -0.4015    1.0000 </r>
       <r>   -0.3556    1.0000 </r>
       <r>   -0.3048    1.0000 </r>
       <r>   -0.2851    1.0000 </r>
       <r>   -0.2663    1.0000 </r>
       <r>    1.9506    1.0000 </r>
       <r>    3.6248    1.0000 </r>
       <r>    5.1038    0.0242 </r>
       <r>    5.3769   -0.0054 </r>
       <r>    7.4828    0.0000 </r>
       <r>    8.3485    0.0000 </r>
       <r>    8.5382    0.0000 </r>
       <r>    9.0766    0.0000 </r>
       <r>    9.1618    0.0000 </r>
      </set>
      <set comment="kpoint 31">
       <r>  -30.8321    1.0000 </r>
       <r>  -10.9392    1.0000 </r>
       <r>  -10.6675    1.0000 </r>
       <r>  -10.6466    1.0000 </r>
       <r>   -0.3595    1.0000 </r>
       <r>   -0.2958    1.0000 </r>
       <r>   -0.2904    1.0000 </r>
       <r>   -0.2854    1.0000 </r>
       <r>   -0.2608    1.0000 </r>
       <r>    2.4340    1.0000 </r>
       <r>    3.1806    1.0000 </r>
       <r>    5.0549    0.1273 </r>
       <r>    5.1953   -0.0354 </r>
       <r>    7.7445    0.0000 </r>
       <r>    8.5338    0.0000 </r>
       <r>    8.5439    0.0000 </r>
       <r>    8.8981    0.0000 </r>
       <r>    9.0046    0.0000 </r>
      </set>
      <set comment="kpoint 32">
       <r>  -30.8320    1.0000 </r>
       <r>  -10.9430    1.0000 </r>
       <r>  -10.6719    1.0000 </r>
       <r>  -10.6454    1.0000 </r>
       <r>   -0.3326    1.0000 </r>
       <r>   -0.3224    1.0000 </r>
       <r>   -0.2939    1.0000 </r>
       <r>   -0.2736    1.0000 </r>
       <r>   -0.2447    1.0000 </r>
       <r>    2.6591    1.0000 </r>
       <r>    2.9706    1.0000 </r>
       <r>    5.0570    0.1215 </r>
       <r>    5.1070    0.0193 </r>
       <r>    8.0342    0.0000 </r>
       <r>    8.2173    0.0000 </r>
       <r>    8.3781    0.0000 </r>
       <r>    9.0619    0.0000 </r>
       <r>    9.2682    0.0000 </r>
      </set>
      <set comment="kpoint 33">
       <r>  -30.8328    1.0000 </r>
       <r>  -10.9226    1.0000 </r>
       <r>  -10.6685    1.0000 </r>
       <r>  -10.6383    1.0000 </r>
       <r>   -0.3771    1.0000 </r>
       <r>   -0.3440    1.0000 </r>
       <r>   -0.2955    1.0000 </r>
       <r>   -0.2898    1.0000 </r>
       <r>   -0.2369    1.0000 </r>
       <r>    2.1877    1.0000 </r>
       <r>    3.4285    1.0000 </r>
       <r>    5.1021    0.0266 </r>
       <r>    5.1254   -0.0032 </r>
       <r>    7.8503    0.0000 </r>
       <r>    8.0617    0.0000 </r>
       <r>    8.5857    0.0000 </r>
       <r>    8.9017    0.0000 </r>
       <r>    9.4604    0.0000 </r>
      </set>
      <set comment="kpoint 34">
       <r>  -30.8345    1.0000 </r>
       <r>  -10.8810    1.0000 </r>
       <r>  -10.6577    1.0000 </r>
       <r>  -10.6264    1.0000 </r>
       <r>   -0.4465    1.0000 </r>
       <r>   -0.3778    1.0000 </r>
       <r>   -0.3269    1.0000 </r>
       <r>   -0.2892    1.0000 </r>
       <r>   -0.2632    1.0000 </r>
       <r>    1.6688    1.0000 </r>
       <r>    3.9316    1.0000 </r>
       <r>    5.1905   -0.0352 </r>
       <r>    5.2537   -0.0277 </r>
       <r>    7.5095    0.0000 </r>
       <r>    8.0294    0.0000 </r>
       <r>    8.5570    0.0000 </r>
       <r>    9.0235    0.0000 </r>
       <r>    9.5847    0.0000 </r>
      </set>
      <set comment="kpoint 35">
       <r>  -30.8368    1.0000 </r>
       <r>  -10.8239    1.0000 </r>
       <r>  -10.6408    1.0000 </r>
       <r>  -10.6115    1.0000 </r>
       <r>   -0.5163    1.0000 </r>
       <r>   -0.4120    1.0000 </r>
       <r>   -0.3631    1.0000 </r>
       <r>   -0.3194    1.0000 </r>
       <r>   -0.3042    1.0000 </r>
       <r>    1.1541    1.0000 </r>
       <r>    4.4685    1.0016 </r>
       <r>    5.3206   -0.0132 </r>
       <r>    5.4860   -0.0005 </r>
       <r>    7.2181    0.0000 </r>
       <r>    8.0730    0.0000 </r>
       <r>    8.2504    0.0000 </r>
       <r>    9.2547    0.0000 </r>
       <r>    9.3879    0.0000 </r>
      </set>
      <set comment="kpoint 36">
       <r>  -30.8394    1.0000 </r>
       <r>  -10.7596    1.0000 </r>
       <r>  -10.6198    1.0000 </r>
       <r>  -10.5957    1.0000 </r>
       <r>   -0.5744    1.0000 </r>
       <r>   -0.4395    1.0000 </r>
       <r>   -0.3983    1.0000 </r>
       <r>   -0.3947    1.0000 </r>
       <r>   -0.3331    1.0000 </r>
       <r>    0.6796    1.0000 </r>
       <r>    5.0375    0.1783 </r>
       <r>    5.4831   -0.0006 </r>
       <r>    5.8070    0.0000 </r>
       <r>    6.9901    0.0000 </r>
       <r>    7.9576    0.0000 </r>
       <r>    8.1574    0.0000 </r>
       <r>    9.0437    0.0000 </r>
       <r>    9.1747    0.0000 </r>
      </set>
      <set comment="kpoint 37">
       <r>  -30.8418    1.0000 </r>
       <r>  -10.6980    1.0000 </r>
       <r>  -10.5976    1.0000 </r>
       <r>  -10.5815    1.0000 </r>
       <r>   -0.6104    1.0000 </r>
       <r>   -0.4764    1.0000 </r>
       <r>   -0.4569    1.0000 </r>
       <r>   -0.4275    1.0000 </r>
       <r>   -0.3712    1.0000 </r>
       <r>    0.2773    1.0000 </r>
       <r>    5.6095    0.0000 </r>
       <r>    5.6752    0.0000 </r>
       <r>    6.1850    0.0000 </r>
       <r>    6.8430    0.0000 </r>
       <r>    7.7264    0.0000 </r>
       <r>    8.1200    0.0000 </r>
       <r>    8.8742    0.0000 </r>
       <r>    8.8916    0.0000 </r>
      </set>
      <set comment="kpoint 38">
       <r>  -30.8412    1.0000 </r>
       <r>  -10.6994    1.0000 </r>
       <r>  -10.5977    1.0000 </r>
       <r>  -10.5977    1.0000 </r>
       <r>   -0.6300    1.0000 </r>
       <r>   -0.5531    1.0000 </r>
       <r>   -0.5412    1.0000 </r>
       <r>   -0.3551    1.0000 </r>
       <r>   -0.3551    1.0000 </r>
       <r>    0.4398    1.0000 </r>
       <r>    5.2774   -0.0223 </r>
       <r>    5.8867    0.0000 </r>
       <r>    6.4064    0.0000 </r>
       <r>    6.4064    0.0000 </r>
       <r>    8.4835    0.0000 </r>
       <r>    8.5130    0.0000 </r>
       <r>    8.5130    0.0000 </r>
       <r>    8.7826    0.0000 </r>
      </set>
      <set comment="kpoint 39">
       <r>  -30.8393    1.0000 </r>
       <r>  -10.7441    1.0000 </r>
       <r>  -10.6127    1.0000 </r>
       <r>  -10.6117    1.0000 </r>
       <r>   -0.6060    1.0000 </r>
       <r>   -0.5509    1.0000 </r>
       <r>   -0.5167    1.0000 </r>
       <r>   -0.3234    1.0000 </r>
       <r>   -0.3222    1.0000 </r>
       <r>    0.7399    1.0000 </r>
       <r>    4.8789    0.7940 </r>
       <r>    5.6623    0.0000 </r>
       <r>    6.3499    0.0000 </r>
       <r>    6.5210    0.0000 </r>
       <r>    8.3476    0.0000 </r>
       <r>    8.5507    0.0000 </r>
       <r>    8.8784    0.0000 </r>
       <r>    9.0235    0.0000 </r>
      </set>
      <set comment="kpoint 40">
       <r>  -30.8370    1.0000 </r>
       <r>  -10.7959    1.0000 </r>
       <r>  -10.6323    1.0000 </r>
       <r>  -10.6266    1.0000 </r>
       <r>   -0.5585    1.0000 </r>
       <r>   -0.5414    1.0000 </r>
       <r>   -0.4592    1.0000 </r>
       <r>   -0.2956    1.0000 </r>
       <r>   -0.2912    1.0000 </r>
       <r>    1.0902    1.0000 </r>
       <r>    4.4962    1.0028 </r>
       <r>    5.4202   -0.0024 </r>
       <r>    6.1891    0.0000 </r>
       <r>    6.7513    0.0000 </r>
       <r>    8.3537    0.0000 </r>
       <r>    8.5048    0.0000 </r>
       <r>    9.1566    0.0000 </r>
       <r>    9.2650    0.0000 </r>
      </set>
      <set comment="kpoint 41">
       <r>  -30.8348    1.0000 </r>
       <r>  -10.8455    1.0000 </r>
       <r>  -10.6551    1.0000 </r>
       <r>  -10.6400    1.0000 </r>
       <r>   -0.5135    1.0000 </r>
       <r>   -0.4930    1.0000 </r>
       <r>   -0.4009    1.0000 </r>
       <r>   -0.2748    1.0000 </r>
       <r>   -0.2652    1.0000 </r>
       <r>    1.4712    1.0000 </r>
       <r>    4.1364    1.0000 </r>
       <r>    5.2451   -0.0296 </r>
       <r>    5.9566    0.0000 </r>
       <r>    7.0146    0.0000 </r>
       <r>    8.4904    0.0000 </r>
       <r>    8.4953    0.0000 </r>
       <r>    9.2283    0.0000 </r>
       <r>    9.4525    0.0000 </r>
      </set>
      <set comment="kpoint 42">
       <r>  -30.8328    1.0000 </r>
       <r>  -10.8854    1.0000 </r>
       <r>  -10.6776    1.0000 </r>
       <r>  -10.6501    1.0000 </r>
       <r>   -0.4710    1.0000 </r>
       <r>   -0.4173    1.0000 </r>
       <r>   -0.3610    1.0000 </r>
       <r>   -0.2645    1.0000 </r>
       <r>   -0.2498    1.0000 </r>
       <r>    1.8659    1.0000 </r>
       <r>    3.7932    1.0000 </r>
       <r>    5.1503   -0.0231 </r>
       <r>    5.7088    0.0000 </r>
       <r>    7.2635    0.0000 </r>
       <r>    8.5923    0.0000 </r>
       <r>    8.6811    0.0000 </r>
       <r>    9.0336    0.0000 </r>
       <r>    9.1674    0.0000 </r>
      </set>
      <set comment="kpoint 43">
       <r>  -30.8316    1.0000 </r>
       <r>  -10.9105    1.0000 </r>
       <r>  -10.6961    1.0000 </r>
       <r>  -10.6552    1.0000 </r>
       <r>   -0.4201    1.0000 </r>
       <r>   -0.3512    1.0000 </r>
       <r>   -0.3433    1.0000 </r>
       <r>   -0.2694    1.0000 </r>
       <r>   -0.2463    1.0000 </r>
       <r>    2.2611    1.0000 </r>
       <r>    3.4519    1.0000 </r>
       <r>    5.1090    0.0165 </r>
       <r>    5.4917   -0.0005 </r>
       <r>    7.4803    0.0000 </r>
       <r>    8.5854    0.0000 </r>
       <r>    8.6890    0.0000 </r>
       <r>    8.9876    0.0000 </r>
       <r>    9.0343    0.0000 </r>
      </set>
      <set comment="kpoint 44">
       <r>  -30.8312    1.0000 </r>
       <r>  -10.9181    1.0000 </r>
       <r>  -10.7071    1.0000 </r>
       <r>  -10.6548    1.0000 </r>
       <r>   -0.3787    1.0000 </r>
       <r>   -0.3643    1.0000 </r>
       <r>   -0.2879    1.0000 </r>
       <r>   -0.2824    1.0000 </r>
       <r>   -0.2554    1.0000 </r>
       <r>    2.6239    1.0000 </r>
       <r>    3.1187    1.0000 </r>
       <r>    5.0767    0.0739 </r>
       <r>    5.3361   -0.0105 </r>
       <r>    7.7247    0.0000 </r>
       <r>    8.2221    0.0000 </r>
       <r>    8.5110    0.0000 </r>
       <r>    9.2620    0.0000 </r>
       <r>    9.2849    0.0000 </r>
      </set>
      <set comment="kpoint 45">
       <r>  -30.8316    1.0000 </r>
       <r>  -10.9079    1.0000 </r>
       <r>  -10.7082    1.0000 </r>
       <r>  -10.6487    1.0000 </r>
       <r>   -0.4202    1.0000 </r>
       <r>   -0.3341    1.0000 </r>
       <r>   -0.3097    1.0000 </r>
       <r>   -0.2783    1.0000 </r>
       <r>   -0.2421    1.0000 </r>
       <r>    2.5419    1.0000 </r>
       <r>    3.1932    1.0000 </r>
       <r>    5.0433    0.1605 </r>
       <r>    5.2617   -0.0259 </r>
       <r>    7.8512    0.0000 </r>
       <r>    8.0712    0.0000 </r>
       <r>    8.4267    0.0000 </r>
       <r>    9.3376    0.0000 </r>
       <r>    9.4942    0.0000 </r>
      </set>
      <set comment="kpoint 46">
       <r>  -30.8329    1.0000 </r>
       <r>  -10.8824    1.0000 </r>
       <r>  -10.6981    1.0000 </r>
       <r>  -10.6380    1.0000 </r>
       <r>   -0.4748    1.0000 </r>
       <r>   -0.3599    1.0000 </r>
       <r>   -0.3074    1.0000 </r>
       <r>   -0.2948    1.0000 </r>
       <r>   -0.2375    1.0000 </r>
       <r>    2.0858    1.0000 </r>
       <r>    3.6199    1.0000 </r>
       <r>    5.0399    0.1708 </r>
       <r>    5.2786   -0.0220 </r>
       <r>    7.5198    0.0000 </r>
       <r>    8.4327    0.0000 </r>
       <r>    8.5190    0.0000 </r>
       <r>    9.0346    0.0000 </r>
       <r>    9.4391    0.0000 </r>
      </set>
      <set comment="kpoint 47">
       <r>  -30.8349    1.0000 </r>
       <r>  -10.8457    1.0000 </r>
       <r>  -10.6777    1.0000 </r>
       <r>  -10.6242    1.0000 </r>
       <r>   -0.5259    1.0000 </r>
       <r>   -0.3948    1.0000 </r>
       <r>   -0.3414    1.0000 </r>
       <r>   -0.2892    1.0000 </r>
       <r>   -0.2653    1.0000 </r>
       <r>    1.5861    1.0000 </r>
       <r>    4.1037    1.0000 </r>
       <r>    5.0945    0.0391 </r>
       <r>    5.3868   -0.0045 </r>
       <r>    7.2527    0.0000 </r>
       <r>    8.4899    0.0000 </r>
       <r>    8.6566    0.0000 </r>
       <r>    8.9760    0.0000 </r>
       <r>    9.2501    0.0000 </r>
      </set>
      <set comment="kpoint 48">
       <r>  -30.8371    1.0000 </r>
       <r>  -10.8030    1.0000 </r>
       <r>  -10.6497    1.0000 </r>
       <r>  -10.6093    1.0000 </r>
       <r>   -0.5612    1.0000 </r>
       <r>   -0.4222    1.0000 </r>
       <r>   -0.3722    1.0000 </r>
       <r>   -0.3207    1.0000 </r>
       <r>   -0.3023    1.0000 </r>
       <r>    1.1040    1.0000 </r>
       <r>    4.6056    1.0168 </r>
       <r>    5.2238   -0.0335 </r>
       <r>    5.5732   -0.0001 </r>
       <r>    7.0689    0.0000 </r>
       <r>    8.2971    0.0000 </r>
       <r>    8.4518    0.0000 </r>
       <r>    9.0398    0.0000 </r>
       <r>    9.3418    0.0000 </r>
      </set>
      <set comment="kpoint 49">
       <r>  -30.8377    1.0000 </r>
       <r>  -10.7717    1.0000 </r>
       <r>  -10.6245    1.0000 </r>
       <r>  -10.6244    1.0000 </r>
       <r>   -0.6055    1.0000 </r>
       <r>   -0.5802    1.0000 </r>
       <r>   -0.5151    1.0000 </r>
       <r>   -0.2921    1.0000 </r>
       <r>   -0.2921    1.0000 </r>
       <r>    0.9674    1.0000 </r>
       <r>    4.6348    1.0233 </r>
       <r>    5.6191    0.0000 </r>
       <r>    6.4498    0.0000 </r>
       <r>    6.4498    0.0000 </r>
       <r>    8.5768    0.0000 </r>
       <r>    8.8025    0.0000 </r>
       <r>    8.8027    0.0000 </r>
       <r>    9.1441    0.0000 </r>
      </set>
      <set comment="kpoint 50">
       <r>  -30.8359    1.0000 </r>
       <r>  -10.8079    1.0000 </r>
       <r>  -10.6411    1.0000 </r>
       <r>  -10.6382    1.0000 </r>
       <r>   -0.5905    1.0000 </r>
       <r>   -0.5833    1.0000 </r>
       <r>   -0.4888    1.0000 </r>
       <r>   -0.2667    1.0000 </r>
       <r>   -0.2655    1.0000 </r>
       <r>    1.2167    1.0000 </r>
       <r>    4.4300    1.0007 </r>
       <r>    5.4496   -0.0013 </r>
       <r>    6.4410    0.0000 </r>
       <r>    6.5983    0.0000 </r>
       <r>    8.5736    0.0000 </r>
       <r>    8.8438    0.0000 </r>
       <r>    9.0201    0.0000 </r>
       <r>    9.3301    0.0000 </r>
      </set>
      <set comment="kpoint 51">
       <r>  -30.8339    1.0000 </r>
       <r>  -10.8428    1.0000 </r>
       <r>  -10.6643    1.0000 </r>
       <r>  -10.6507    1.0000 </r>
       <r>   -0.5772    1.0000 </r>
       <r>   -0.5369    1.0000 </r>
       <r>   -0.4508    1.0000 </r>
       <r>   -0.2477    1.0000 </r>
       <r>   -0.2431    1.0000 </r>
       <r>    1.4716    1.0000 </r>
       <r>    4.2651    1.0000 </r>
       <r>    5.2740   -0.0230 </r>
       <r>    6.3123    0.0000 </r>
       <r>    6.8527    0.0000 </r>
       <r>    8.6594    0.0000 </r>
       <r>    8.8226    0.0000 </r>
       <r>    9.1428    0.0000 </r>
       <r>    9.4573    0.0000 </r>
      </set>
[...]
        <r>  0.0000  0.0006  0.0056  0.0028  0.0002  0.0006  0.0090  0.0000  0.0045  0.0000  0.0000  0.0000  0.0000  0.0000  0.0000  0.0000 </r>
       </set>
       <set comment="band 17">
        <r>  0.0001  0.0000  0.0002  0.0002  0.0011  0.0013  0.0102  0.0216  0.0019  0.0298  0.0087  0.0365  0.3921  0.1642  0.0560  0.0797 </r>
        <r>  0.0026  0.0001  0.0087  0.0057  0.0004  0.0007  0.0006  0.0007  0.0010  0.0000  0.0000  0.0000  0.0000  0.0000  0.0000  0.0000 </r>
       </set>
       <set comment="band 18">
        <r>  0.0093  0.0003  0.0025  0.0008  0.0003  0.0003  0.0264  0.0645  0.0679  0.0036  0.0004  0.2733  0.1712  0.0823  0.0185  0.0448 </r>
        <r>  0.0002  0.0012  0.0062  0.0020  0.0001  0.0002  0.0168  0.0000  0.0025  0.0000  0.0000  0.0000  0.0000  0.0000  0.0000  0.0000 </r>
       </set>
      </set>
      <set comment="kpoint 143">
       <set comment="band 1">
        <r>  0.9820  0.0000  0.0000  0.0000  0.0000  0.0000  0.0000  0.0000  0.0000  0.0000  0.0000  0.0000  0.0000  0.0000  0.0000  0.0000 </r>
        <r>  0.0000  0.0000  0.0000  0.0000  0.0000  0.0000  0.0001  0.0000  0.0000  0.0000  0.0000  0.0000  0.0000  0.0000  0.0000  0.0000 </r>
       </set>
       <set comment="band 2">
        <r>  0.0000  0.1636  0.0000  0.7187  0.0000  0.0000  0.0000  0.0000  0.0000  0.0000  0.0000  0.0000  0.0000  0.0000  0.0000  0.0000 </r>
        <r>  0.0015  0.0000  0.0000  0.0020  0.0002  0.0000  0.0005  0.0000  0.0000  0.0000  0.0000  0.0000  0.0000  0.0000  0.0000  0.0000 </r>
       </set>
       <set comment="band 3">
        <r>  0.0000  0.0000  0.8861  0.0000  0.0000  0.0001  0.0000  0.0000  0.0000  0.0000  0.0000  0.0000  0.0000  0.0000  0.0000  0.0000 </r>
        <r>  0.0000  0.0000  0.0028  0.0000  0.0000  0.0002  0.0000  0.0000  0.0000  0.0000  0.0000  0.0000  0.0000  0.0000  0.0000  0.0000 </r>
       </set>
       <set comment="band 4">
        <r>  0.0000  0.7280  0.0000  0.1666  0.0000  0.0000  0.0000  0.0000  0.0000  0.0000  0.0000  0.0000  0.0000  0.0000  0.0000  0.0000 </r>
        <r>  0.0014  0.0000  0.0000  0.0005  0.0000  0.0000  0.0005  0.0000  0.0030  0.0000  0.0000  0.0000  0.0000  0.0000  0.0000  0.0000 </r>
       </set>
       <set comment="band 5">
        <r>  0.0097  0.0000  0.0000  0.0004  0.0001  0.0000  0.0033  0.0000  0.0037  0.0000  0.0000  0.0002  0.0000  0.0002  0.0000  0.0002 </r>
        <r>  0.0002  0.0001  0.0000  0.0001  0.0024  0.0000  0.7168  0.0000  0.1507  0.0000  0.0000  0.0000  0.0000  0.0000  0.0000  0.0000 </r>
       </set>
       <set comment="band 6">
        <r>  0.0000  0.0000  0.0031  0.0000  0.0000  0.0071  0.0000  0.0000  0.0000  0.0000  0.0000  0.0000  0.0008  0.0000  0.0011  0.0000 </r>
        <r>  0.0000  0.0000  0.0001  0.0000  0.0000  0.8625  0.0000  0.0018  0.0000  0.0000  0.0000  0.0000  0.0000  0.0000  0.0000  0.0000 </r>
       </set>
       <set comment="band 7">
        <r>  0.0000  0.0006  0.0000  0.0029  0.0064  0.0000  0.0002  0.0000  0.0000  0.0001  0.0000  0.0000  0.0000  0.0001  0.0000  0.0018 </r>
        <r>  0.0000  0.0000  0.0000  0.0001  0.8571  0.0000  0.0065  0.0000  0.0025  0.0000  0.0000  0.0000  0.0000  0.0000  0.0000  0.0000 </r>
       </set>
       <set comment="band 8">
        <r>  0.0001  0.0072  0.0000  0.0010  0.0000  0.0000  0.0091  0.0000  0.0038  0.0020  0.0000  0.0010  0.0000  0.0001  0.0000  0.0001 </r>
        <r>  0.0032  0.0000  0.0000  0.0000  0.0063  0.0000  0.1474  0.0000  0.7279  0.0000  0.0000  0.0000  0.0000  0.0000  0.0000  0.0000 </r>
       </set>
       <set comment="band 9">
        <r>  0.0000  0.0000  0.0002  0.0000  0.0000  0.0000  0.0000  0.0000  0.0000  0.0000  0.0001  0.0000  0.0001  0.0000  0.0002  0.0000 </r>
        <r>  0.0000  0.0000  0.0000  0.0000  0.0000  0.0020  0.0000  0.9137  0.0000  0.0000  0.0000  0.0000  0.0000  0.0000  0.0000  0.0000 </r>
       </set>
       <set comment="band 10">
        <r>  0.0000  0.0370  0.0000  0.0029  0.0000  0.0000  0.0914  0.0000  0.0300  0.0042  0.0000  0.0024  0.0000  0.0003  0.0000  0.0003 </r>
        <r>  0.2847  0.0000  0.0000  0.0005  0.0002  0.0000  0.0071  0.0000  0.0115  0.0000  0.0000  0.0000  0.0000  0.0000  0.0000  0.0000 </r>
       </set>
       <set comment="band 11">
        <r>  0.0492  0.0002  0.0000  0.0270  0.0788  0.0000  0.0242  0.0000  0.0299  0.0047  0.0000  0.0100  0.0000  0.0007  0.0000  0.0000 </r>
        <r>  0.0001  0.0560  0.0000  0.0237  0.0237  0.0000  0.0043  0.0000  0.0024  0.0000  0.0000  0.0000  0.0000  0.0000  0.0000  0.0000 </r>
       </set>
       <set comment="band 12">
        <r>  0.0000  0.0000  0.0676  0.0000  0.0000  0.1604  0.0000  0.0083  0.0000  0.0000  0.0004  0.0000  0.0008  0.0000  0.0007  0.0000 </r>
        <r>  0.0000  0.0000  0.0509  0.0000  0.0000  0.0532  0.0000  0.0010  0.0000  0.0000  0.0000  0.0000  0.0000  0.0000  0.0000  0.0000 </r>
       </set>
       <set comment="band 13">
        <r>  0.0158  0.0002  0.0000  0.0411  0.0673  0.0000  0.0157  0.0000  0.1089  0.0081  0.0000  0.0142  0.0000  0.0015  0.0000  0.0000 </r>
        <r>  0.0005  0.0544  0.0000  0.0338  0.0238  0.0000  0.0000  0.0000  0.0001  0.0000  0.0000  0.0000  0.0000  0.0000  0.0000  0.0000 </r>
       </set>
       <set comment="band 14">
        <r>  0.0236  0.0000  0.0000  0.0205  0.1339  0.0000  0.0001  0.0000  0.0371  0.0115  0.0000  0.0023  0.0000  0.0719  0.0000  0.1701 </r>
        <r>  0.0013  0.0000  0.0000  0.0431  0.0255  0.0000  0.0074  0.0000  0.0033  0.0000  0.0000  0.0000  0.0000  0.0000  0.0000  0.0000 </r>
       </set>
       <set comment="band 15">
        <r>  0.0000  0.0000  0.0252  0.0000  0.0000  0.1179  0.0000  0.0948  0.0000  0.0000  0.0002  0.0000  0.0167  0.0000  0.2434  0.0000 </r>
        <r>  0.0000  0.0000  0.0367  0.0000  0.0000  0.0207  0.0000  0.0012  0.0000  0.0000  0.0000  0.0000  0.0000  0.0000  0.0000  0.0000 </r>
       </set>
       <set comment="band 16">
        <r>  0.0002  0.0000  0.0051  0.0000  0.0002  0.0009  0.0001  0.2206  0.0020  0.0048  0.0199  0.0005  0.4170  0.0419  0.0061  0.0085 </r>
        <r>  0.0002  0.0000  0.0252  0.0006  0.0001  0.0020  0.0000  0.0007  0.0002  0.0000  0.0000  0.0000  0.0000  0.0000  0.0000  0.0000 </r>
       </set>
       <set comment="band 17">
        <r>  0.0044  0.0000  0.0007  0.0004  0.0039  0.0000  0.0001  0.0599  0.0385  0.0815  0.0002  0.0005  0.0036  0.4900  0.0162  0.0786 </r>
        <r>  0.0024  0.0002  0.0013  0.0060  0.0006  0.0001  0.0004  0.0000  0.0028  0.0000  0.0000  0.0000  0.0000  0.0000  0.0000  0.0000 </r>
       </set>
       <set comment="band 18">
        <r>  0.0184  0.0001  0.0001  0.0032  0.0001  0.0001  0.0790  0.0129  0.0935  0.0709  0.0077  0.3356  0.0081  0.0044  0.0081  0.0977 </r>
        <r>  0.0023  0.0015  0.0000  0.0034  0.0002  0.0000  0.0308  0.0000  0.0040  0.0000  0.0000  0.0000  0.0000  0.0000  0.0000  0.0000 </r>
       </set>
      </set>
      <set comment="kpoint 144">
       <set comment="band 1">
        <r>  0.9821  0.0000  0.0000  0.0000  0.0000  0.0000  0.0000  0.0000  0.0000  0.0000  0.0000  0.0000  0.0000  0.0000  0.0000  0.0000 </r>
        <r>  0.0000  0.0000  0.0000  0.0000  0.0000  0.0000  0.0001  0.0000  0.0000  0.0000  0.0000  0.0000  0.0000  0.0000  0.0000  0.0000 </r>
       </set>
       <set comment="band 2">
        <r>  0.0000  0.0000  0.8807  0.0000  0.0000  0.0001  0.0000  0.0000  0.0000  0.0000  0.0000  0.0000  0.0000  0.0000  0.0000  0.0000 </r>
        <r>  0.0000  0.0000  0.0031  0.0000  0.0000  0.0002  0.0000  0.0000  0.0000  0.0000  0.0000  0.0000  0.0000  0.0000  0.0000  0.0000 </r>
       </set>
       <set comment="band 3">
        <r>  0.0000  0.0000  0.0000  0.8904  0.0001  0.0000  0.0000  0.0000  0.0000  0.0000  0.0000  0.0000  0.0000  0.0000  0.0000  0.0000 </r>
        <r>  0.0000  0.0000  0.0000  0.0026  0.0002  0.0000  0.0000  0.0000  0.0000  0.0000  0.0000  0.0000  0.0000  0.0000  0.0000  0.0000 </r>
       </set>
       <set comment="band 4">
        <r>  0.0000  0.8928  0.0000  0.0000  0.0000  0.0000  0.0001  0.0000  0.0000  0.0000  0.0000  0.0000  0.0000  0.0000  0.0000  0.0000 </r>
        <r>  0.0022  0.0003  0.0000  0.0000  0.0000  0.0000  0.0008  0.0000  0.0023  0.0000  0.0000  0.0000  0.0000  0.0000  0.0000  0.0000 </r>
       </set>
       <set comment="band 5">
        <r>  0.0100  0.0000  0.0000  0.0000  0.0000  0.0000  0.0009  0.0000  0.0066  0.0001  0.0000  0.0001  0.0000  0.0000  0.0000  0.0000 </r>
        <r>  0.0002  0.0000  0.0000  0.0000  0.0000  0.0000  0.6178  0.0000  0.2519  0.0000  0.0000  0.0000  0.0000  0.0000  0.0000  0.0000 </r>
       </set>
       <set comment="band 6">
        <r>  0.0000  0.0000  0.0000  0.0028  0.0131  0.0000  0.0000  0.0000  0.0000  0.0000  0.0000  0.0000  0.0000  0.0001  0.0000  0.0015 </r>
        <r>  0.0000  0.0000  0.0000  0.0001  0.8370  0.0000  0.0000  0.0000  0.0000  0.0000  0.0000  0.0000  0.0000  0.0000  0.0000  0.0000 </r>
       </set>
       <set comment="band 7">
        <r>  0.0007  0.0064  0.0000  0.0000  0.0000  0.0000  0.0064  0.0000  0.0081  0.0014  0.0000  0.0011  0.0000  0.0000  0.0000  0.0000 </r>
        <r>  0.0025  0.0001  0.0000  0.0000  0.0000  0.0000  0.2567  0.0000  0.6229  0.0000  0.0000  0.0000  0.0000  0.0000  0.0000  0.0000 </r>
       </set>
       <set comment="band 8">
        <r>  0.0000  0.0000  0.0025  0.0000  0.0000  0.0031  0.0000  0.0000  0.0000  0.0000  0.0000  0.0000  0.0007  0.0000  0.0010  0.0000 </r>
        <r>  0.0000  0.0000  0.0001  0.0000  0.0000  0.8870  0.0000  0.0000  0.0000  0.0000  0.0000  0.0000  0.0000  0.0000  0.0000  0.0000 </r>
       </set>
       <set comment="band 9">
        <r>  0.0000  0.0000  0.0000  0.0000  0.0000  0.0000  0.0000  0.0000  0.0000  0.0000  0.0001  0.0000  0.0000  0.0000  0.0000  0.0000 </r>
        <r>  0.0000  0.0000  0.0000  0.0000  0.0000  0.0000  0.0000  0.9179  0.0000  0.0000  0.0000  0.0000  0.0000  0.0000  0.0000  0.0000 </r>
       </set>
       <set comment="band 10">
        <r>  0.0053  0.0268  0.0000  0.0000  0.0000  0.0000  0.1253  0.0000  0.0051  0.0019  0.0000  0.0028  0.0000  0.0000  0.0000  0.0000 </r>
        <r>  0.2750  0.0019  0.0000  0.0000  0.0000  0.0000  0.0003  0.0000  0.0129  0.0000  0.0000  0.0000  0.0000  0.0000  0.0000  0.0000 </r>
       </set>
       <set comment="band 11">
        <r>  0.0000  0.0000  0.0000  0.0443  0.2050  0.0000  0.0000  0.0000  0.0000  0.0000  0.0000  0.0000  0.0000  0.0014  0.0000  0.0002 </r>
        <r>  0.0000  0.0000  0.0000  0.0365  0.0889  0.0000  0.0000  0.0000  0.0000  0.0000  0.0000  0.0000  0.0000  0.0000  0.0000  0.0000 </r>
       </set>
       <set comment="band 12">
        <r>  0.0000  0.0000  0.0966  0.0000  0.0000  0.1192  0.0000  0.0000  0.0000  0.0000  0.0000  0.0000  0.0033  0.0000  0.0003  0.0000 </r>
        <r>  0.0000  0.0000  0.0637  0.0000  0.0000  0.0293  0.0000  0.0000  0.0000  0.0000  0.0000  0.0000  0.0000  0.0000  0.0000  0.0000 </r>
       </set>
       <set comment="band 13">
        <r>  0.0590  0.0126  0.0000  0.0000  0.0000  0.0000  0.0103  0.0000  0.1297  0.0337  0.0000  0.0152  0.0000  0.0000  0.0000  0.0000 </r>
        <r>  0.0084  0.1088  0.0000  0.0000  0.0000  0.0000  0.0091  0.0000  0.0021  0.0000  0.0000  0.0000  0.0000  0.0000  0.0000  0.0000 </r>
       </set>
       <set comment="band 14">
        <r>  0.0000  0.0000  0.0000  0.0472  0.0752  0.0000  0.0000  0.0000  0.0000  0.0000  0.0000  0.0000  0.0000  0.0868  0.0000  0.2192 </r>
        <r>  0.0000  0.0000  0.0000  0.0746  0.0223  0.0000  0.0000  0.0000  0.0000  0.0000  0.0000  0.0000  0.0000  0.0000  0.0000  0.0000 </r>
       </set>
       <set comment="band 15">
        <r>  0.0000  0.0000  0.0242  0.0000  0.0000  0.1456  0.0000  0.0000  0.0000  0.0000  0.0000  0.0000  0.0086  0.0000  0.3854  0.0000 </r>
        <r>  0.0000  0.0000  0.0284  0.0000  0.0000  0.0145  0.0000  0.0000  0.0000  0.0000  0.0000  0.0000  0.0000  0.0000  0.0000  0.0000 </r>
       </set>
       <set comment="band 16">
        <r>  0.0034  0.0000  0.0003  0.0000  0.0002  0.0000  0.0043  0.5140  0.0200  0.0057  0.0026  0.0218  0.0613  0.0250  0.0035  0.0102 </r>
        <r>  0.0000  0.0002  0.0020  0.0005  0.0000  0.0001  0.0028  0.0001  0.0019  0.0000  0.0000  0.0000  0.0000  0.0000  0.0000  0.0000 </r>
       </set>
       <set comment="band 17">
        <r>  0.0302  0.0002  0.0002  0.0000  0.0006  0.0000  0.0362  0.0018  0.1522  0.0170  0.0001  0.1957  0.0613  0.1578  0.0028  0.0594 </r>
        <r>  0.0000  0.0017  0.0018  0.0035  0.0001  0.0001  0.0244  0.0000  0.0133  0.0000  0.0000  0.0000  0.0000  0.0000  0.0000  0.0000 </r>
       </set>
       <set comment="band 18">
        <r>  0.0031  0.0000  0.0011  0.0001  0.0010  0.0003  0.0028  0.0005  0.0135  0.0020  0.0008  0.0109  0.3390  0.3118  0.0148  0.1141 </r>
        <r>  0.0000  0.0001  0.0100  0.0070  0.0002  0.0007  0.0021  0.0000  0.0013  0.0000  0.0000  0.0000  0.0000  0.0000  0.0000  0.0000 </r>
       </set>
      </set>
      <set comment="kpoint 145">
       <set comment="band 1">
        <r>  0.9821  0.0000  0.0000  0.0000  0.0000  0.0000  0.0000  0.0000  0.0000  0.0000  0.0000  0.0000  0.0000  0.0000  0.0000  0.0000 </r>
        <r>  0.0000  0.0000  0.0000  0.0000  0.0000  0.0000  0.0001  0.0000  0.0000  0.0000  0.0000  0.0000  0.0000  0.0000  0.0000  0.0000 </r>
       </set>
       <set comment="band 2">
        <r>  0.0000  0.0000  0.4437  0.4417  0.0000  0.0000  0.0000  0.0000  0.0000  0.0000  0.0000  0.0000  0.0000  0.0000  0.0000  0.0000 </r>
        <r>  0.0000  0.0000  0.0014  0.0014  0.0001  0.0001  0.0000  0.0000  0.0000  0.0000  0.0000  0.0000  0.0000  0.0000  0.0000  0.0000 </r>
       </set>
       <set comment="band 3">
        <r>  0.0000  0.0000  0.4417  0.4437  0.0000  0.0000  0.0000  0.0000  0.0000  0.0000  0.0000  0.0000  0.0000  0.0000  0.0000  0.0000 </r>
        <r>  0.0000  0.0000  0.0014  0.0014  0.0001  0.0001  0.0000  0.0000  0.0000  0.0000  0.0000  0.0000  0.0000  0.0000  0.0000  0.0000 </r>
       </set>
       <set comment="band 4">
        <r>  0.0000  0.8918  0.0000  0.0000  0.0000  0.0000  0.0001  0.0000  0.0000  0.0000  0.0000  0.0000  0.0000  0.0000  0.0000  0.0000 </r>
        <r>  0.0025  0.0000  0.0000  0.0000  0.0000  0.0000  0.0009  0.0000  0.0027  0.0000  0.0000  0.0000  0.0000  0.0000  0.0000  0.0000 </r>
       </set>
       <set comment="band 5">
        <r>  0.0101  0.0000  0.0000  0.0000  0.0000  0.0000  0.0018  0.0000  0.0053  0.0001  0.0000  0.0001  0.0000  0.0000  0.0000  0.0000 </r>
        <r>  0.0000  0.0001  0.0000  0.0000  0.0000  0.0000  0.6530  0.0000  0.2177  0.0000  0.0000  0.0000  0.0000  0.0000  0.0000  0.0000 </r>
       </set>
       <set comment="band 6">
        <r>  0.0000  0.0000  0.0016  0.0015  0.0036  0.0037  0.0000  0.0000  0.0000  0.0000  0.0000  0.0000  0.0004  0.0000  0.0005  0.0009 </r>
        <r>  0.0000  0.0000  0.0001  0.0001  0.4280  0.4353  0.0000  0.0000  0.0000  0.0000  0.0000  0.0000  0.0000  0.0000  0.0000  0.0000 </r>
       </set>
       <set comment="band 7">
        <r>  0.0000  0.0000  0.0015  0.0016  0.0037  0.0036  0.0000  0.0000  0.0000  0.0000  0.0000  0.0000  0.0004  0.0000  0.0005  0.0009 </r>
        <r>  0.0000  0.0000  0.0001  0.0001  0.4353  0.4280  0.0000  0.0000  0.0000  0.0000  0.0000  0.0000  0.0000  0.0000  0.0000  0.0000 </r>
       </set>
       <set comment="band 8">
        <r>  0.0000  0.0072  0.0000  0.0000  0.0000  0.0000  0.0110  0.0000  0.0037  0.0018  0.0000  0.0011  0.0000  0.0000  0.0000  0.0000 </r>
        <r>  0.0039  0.0000  0.0000  0.0000  0.0000  0.0000  0.2195  0.0000  0.6586  0.0000  0.0000  0.0000  0.0000  0.0000  0.0000  0.0000 </r>
       </set>
       <set comment="band 9">
        <r>  0.0000  0.0000  0.0000  0.0000  0.0000  0.0000  0.0000  0.0000  0.0000  0.0000  0.0001  0.0000  0.0000  0.0000  0.0000  0.0000 </r>
        <r>  0.0000  0.0000  0.0000  0.0000  0.0000  0.0000  0.0000  0.9179  0.0000  0.0000  0.0000  0.0000  0.0000  0.0000  0.0000  0.0000 </r>
       </set>
       <set comment="band 10">
        <r>  0.0000  0.0372  0.0000  0.0000  0.0000  0.0000  0.0932  0.0000  0.0311  0.0042  0.0000  0.0025  0.0000  0.0000  0.0000  0.0000 </r>
        <r>  0.2842  0.0000  0.0000  0.0000  0.0000  0.0000  0.0053  0.0000  0.0158  0.0000  0.0000  0.0000  0.0000  0.0000  0.0000  0.0000 </r>
       </set>
       <set comment="band 11">
        <r>  0.0674  0.0000  0.0000  0.0000  0.0000  0.0000  0.0380  0.0000  0.1139  0.0142  0.0000  0.0237  0.0000  0.0000  0.0000  0.0000 </r>
        <r>  0.0000  0.1100  0.0000  0.0000  0.0000  0.0000  0.0034  0.0000  0.0011  0.0000  0.0000  0.0000  0.0000  0.0000  0.0000  0.0000 </r>
       </set>
       <set comment="band 12">
        <r>  0.0000  0.0000  0.0370  0.0321  0.0770  0.0889  0.0000  0.0000  0.0000  0.0000  0.0000  0.0000  0.0006  0.0008  0.0004  0.0000 </r>
        <r>  0.0000  0.0000  0.0271  0.0235  0.0259  0.0299  0.0000  0.0000  0.0000  0.0000  0.0000  0.0000  0.0000  0.0000  0.0000  0.0000 </r>
       </set>
       <set comment="band 13">
        <r>  0.0000  0.0000  0.0321  0.0370  0.0889  0.0770  0.0000  0.0000  0.0000  0.0000  0.0000  0.0000  0.0005  0.0009  0.0004  0.0000 </r>
        <r>  0.0000  0.0000  0.0235  0.0271  0.0299  0.0259  0.0000  0.0000  0.0000  0.0000  0.0000  0.0000  0.0000  0.0000  0.0000  0.0000 </r>
       </set>
       <set comment="band 14">
        <r>  0.0000  0.0000  0.0181  0.0178  0.0543  0.0550  0.0000  0.0000  0.0000  0.0000  0.0000  0.0000  0.0116  0.0638  0.1644  0.1098 </r>
        <r>  0.0000  0.0000  0.0254  0.0250  0.0103  0.0104  0.0000  0.0000  0.0000  0.0000  0.0000  0.0000  0.0000  0.0000  0.0000  0.0000 </r>
       </set>
       <set comment="band 15">
        <r>  0.0000  0.0000  0.0178  0.0181  0.0550  0.0543  0.0000  0.0000  0.0000  0.0000  0.0000  0.0000  0.0114  0.0648  0.1623  0.1112 </r>
        <r>  0.0000  0.0000  0.0250  0.0254  0.0104  0.0103  0.0000  0.0000  0.0000  0.0000  0.0000  0.0000  0.0000  0.0000  0.0000  0.0000 </r>
       </set>
       <set comment="band 16">
        <r>  0.0000  0.0000  0.0000  0.0000  0.0000  0.0000  0.0000  0.6465  0.0002  0.0004  0.0000  0.0001  0.0020  0.0004  0.0002  0.0002 </r>
        <r>  0.0000  0.0000  0.0000  0.0000  0.0000  0.0000  0.0000  0.0000  0.0000  0.0000  0.0000  0.0000  0.0000  0.0000  0.0000  0.0000 </r>
       </set>
       <set comment="band 17">
        <r>  0.0235  0.0000  0.0000  0.0004  0.0009  0.0000  0.0340  0.0000  0.1105  0.0640  0.0008  0.0837  0.0120  0.2718  0.0012  0.1369 </r>
        <r>  0.0000  0.0013  0.0003  0.0089  0.0005  0.0000  0.0213  0.0000  0.0079  0.0000  0.0000  0.0000  0.0000  0.0000  0.0000  0.0000 </r>
       </set>
       <set comment="band 18">
        <r>  0.0061  0.0001  0.0005  0.0001  0.0002  0.0009  0.0019  0.0002  0.0399  0.1472  0.0009  0.0061  0.4583  0.0653  0.0443  0.0324 </r>
        <r>  0.0009  0.0003  0.0112  0.0021  0.0001  0.0006  0.0027  0.0000  0.0074  0.0000  0.0000  0.0000  0.0000  0.0000  0.0000  0.0000 </r>
       </set>
      </set>
     </set>
    </set>
   </array>
  </projected>
 </calculation>
 <structure name="finalpos" >
  <crystal>
   <varray name="basis" >
    <v>       0.00000000       3.25954907       3.25954907 </v>
    <v>       3.25954907       0.00000000       3.25954907 </v>
    <v>       3.25954907       3.25954907       0.00000000 </v>
   </varray>
   <i name="volume">     69.26320226 </i>
   <varray name="rec_basis" >
    <v>      -0.15339545       0.15339545       0.15339545 </v>
    <v>       0.15339545      -0.15339545       0.15339545 </v>
    <v>       0.15339545       0.15339545      -0.15339545 </v>
   </varray>
  </crystal>
  <varray name="positions" >
   <v>       0.00000000       0.00000000       0.00000000 </v>
   <v>       0.50000100       0.50000100       0.50000100 </v>
  </varray>
 </structure>
</modeling>
