                                                                                     
                             WELCOME TO ABACUS                                       
                                                                                     
               'Atomic-orbital Based Ab-initio Computation at UStc'                  
                                                                                     
                     Website: http://abacus.ustc.edu.cn/                             
                                                                                     
    Version: Parallel, in development
    Processor Number is 28
    Start Time is Thu Apr  7 15:13:39 2022
                                                                                     
 ------------------------------------------------------------------------------------

 READING GENERAL INFORMATION
                           global_out_dir = OUT.ABACUS/
                           global_in_card = INPUT
                               pseudo_dir = 
                              orbital_dir = 
                              pseudo_type = upf201
                                    DRANK = 1
                                    DSIZE = 28
                                   DCOLOR = 1
                                    GRANK = 1
                                    GSIZE = 1




 >>>>>>>>>>>>>>>>>>>>>>>>>>>>>>>>>>>>>>>>>>>>>>>>>>>>>>>>>>>>>>>>>>>>>>
 |                                                                    |
 | Reading atom information in unitcell:                              |
 | From the input file and the structure file we know the number of   |
 | different elments in this unitcell, then we list the detail        |
 | information for each element, especially the zeta and polar atomic |
 | orbital number for each element. The total atom number is counted. |
 | We calculate the nearest atom distance for each atom and show the  |
 | Cartesian and Direct coordinates for each atom. We list the file   |
 | address for atomic orbitals. The volume and the lattice vectors    |
 | in real and reciprocal space is also shown.                        |
 |                                                                    |
 <<<<<<<<<<<<<<<<<<<<<<<<<<<<<<<<<<<<<<<<<<<<<<<<<<<<<<<<<<<<<<<<<<<<<<




 READING UNITCELL INFORMATION
                                    ntype = 4
                 atom label for species 1 = Mn1
                 atom label for species 2 = Mn2
                 atom label for species 3 = Bi
                 atom label for species 4 = Te
                  lattice constant (Bohr) = 1.88972
              lattice constant (Angstrom) = 0.999994

 READING ATOM TYPE 1
                               atom label = Mn1
                      L=0, number of zeta = 4
                      L=1, number of zeta = 2
                      L=2, number of zeta = 2
                      L=3, number of zeta = 1
             number of atom for this type = 1
             noncollinear magnetization_x = 0
             noncollinear magnetization_y = 0
             noncollinear magnetization_z = 4

 READING ATOM TYPE 2
                               atom label = Mn2
                      L=0, number of zeta = 4
                      L=1, number of zeta = 2
                      L=2, number of zeta = 2
                      L=3, number of zeta = 1
             number of atom for this type = 1
             noncollinear magnetization_x = 0
             noncollinear magnetization_y = 0
             noncollinear magnetization_z = -4

 READING ATOM TYPE 3
                               atom label = Bi
                      L=0, number of zeta = 2
                      L=1, number of zeta = 2
                      L=2, number of zeta = 2
             number of atom for this type = 4
             noncollinear magnetization_x = 0
             noncollinear magnetization_y = 0
             noncollinear magnetization_z = 0
             noncollinear magnetization_x = 0
             noncollinear magnetization_y = 0
             noncollinear magnetization_z = 0
             noncollinear magnetization_x = 0
             noncollinear magnetization_y = 0
             noncollinear magnetization_z = 0
             noncollinear magnetization_x = 0
             noncollinear magnetization_y = 0
             noncollinear magnetization_z = 0

 READING ATOM TYPE 4
                               atom label = Te
                      L=0, number of zeta = 2
                      L=1, number of zeta = 2
                      L=2, number of zeta = 2
             number of atom for this type = 8
             noncollinear magnetization_x = 0
             noncollinear magnetization_y = 0
             noncollinear magnetization_z = 0
             noncollinear magnetization_x = 0
             noncollinear magnetization_y = 0
             noncollinear magnetization_z = 0
             noncollinear magnetization_x = 0
             noncollinear magnetization_y = 0
             noncollinear magnetization_z = 0
             noncollinear magnetization_x = 0
             noncollinear magnetization_y = 0
             noncollinear magnetization_z = 0
             noncollinear magnetization_x = 0
             noncollinear magnetization_y = 0
             noncollinear magnetization_z = 0
             noncollinear magnetization_x = 0
             noncollinear magnetization_y = 0
             noncollinear magnetization_z = 0
             noncollinear magnetization_x = 0
             noncollinear magnetization_y = 0
             noncollinear magnetization_z = 0
             noncollinear magnetization_x = 0
             noncollinear magnetization_y = 0
             noncollinear magnetization_z = 0

                        TOTAL ATOM NUMBER = 14

 DIRECT COORDINATES
         atom                   x                   y                   z                 mag                  vx                  vy                  vz
    taud_Mn11          5.6516e-09                   1         2.20462e-09                   4                   0                   0                   0
    taud_Mn21          5.6516e-09                   1                 0.5                  -4                   0                   0                   0
     taud_Bi1             0.57795             0.57795            0.133074                   0                   0                   0                   0
     taud_Bi2             0.57795             0.57795            0.633074                   0                   0                   0                   0
     taud_Bi3             0.42205             0.42205            0.366926                   0                   0                   0                   0
     taud_Bi4             0.42205             0.42205            0.866926                   0                   0                   0                   0
     taud_Te1            0.132271            0.132271              0.3016                   0                   0                   0                   0
     taud_Te2            0.132271            0.132271              0.8016                   0                   0                   0                   0
     taud_Te3            0.867729            0.867729              0.1984                   0                   0                   0                   0
     taud_Te4            0.867729            0.867729              0.6984                   0                   0                   0                   0
     taud_Te5            0.296399            0.296399            0.055392                   0                   0                   0                   0
     taud_Te6            0.296399            0.296399            0.555392                   0                   0                   0                   0
     taud_Te7            0.703601            0.703601            0.444608                   0                   0                   0                   0
     taud_Te8            0.703601            0.703601            0.944608                   0                   0                   0                   0


 READING ORBITAL FILE NAMES FOR LCAO
 orbital file: ///home/zujiandai/dojo_Mn/10-rcut/25_Mn_100/10/dojo_Mn_10.dat
 orbital file: ///home/zujiandai/dojo_Mn/10-rcut/25_Mn_100/10/dojo_Mn_10.dat
 orbital file: ///home/zujiandai/abacus/orbital/dojo/Orb_DZP_E100_Full/Bi/Bi_gga_10au_100Ry_2s2p2d.orb
 orbital file: ///home/zujiandai/abacus/orbital/dojo/Orb_DZP_E100_Full/Te/Te_gga_10au_100Ry_2s2p2d.orb

                          Volume (Bohr^3) = 2993.5
                             Volume (A^3) = 443.59

 Lattice vectors: (Cartesian coordinate: in unit of a_0)
              +4.3337                  +0                  +0
             +2.16685            +3.75309                  +0
             +4.33391            +2.50219            +27.2735
 Reciprocal vectors: (Cartesian coordinate: in unit of 2 pi/a_0)
             +0.23075           -0.133223           -0.024445
                   +0           +0.266447           -0.024445
                   +0                  +0          +0.0366657




 >>>>>>>>>>>>>>>>>>>>>>>>>>>>>>>>>>>>>>>>>>>>>>>>>>>>>>>>>>>>>>>>>>>>>>
 |                                                                    |
 | Reading pseudopotentials files:                                    |
 | The pseudopotential file is in UPF format. The 'NC' indicates that |
 | the type of pseudopotential is 'norm conserving'. Functional of    |
 | exchange and correlation is decided by 4 given parameters in UPF   |
 | file.  We also read in the 'core correction' if there exists.      |
 | Also we can read the valence electrons number and the maximal      |
 | angular momentum used in this pseudopotential. We also read in the |
 | trail wave function, trail atomic density and local-pseudopotential|
 | on logrithmic grid. The non-local pseudopotential projector is also|
 | read in if there is any.                                           |
 |                                                                    |
 <<<<<<<<<<<<<<<<<<<<<<<<<<<<<<<<<<<<<<<<<<<<<<<<<<<<<<<<<<<<<<<<<<<<<<




                PAO radial cut off (Bohr) = 15

 Read in pseudopotential file is /home/zujiandai/abacus/potential/dojo-soc/nc-fr-04_pbe_standard/Mn.upf
                     pseudopotential type = NC
          exchange-correlation functional = PBE
                 nonlocal core correction = 1
                        valence electrons = 15
                                     lmax = 2
                           number of zeta = 6
                     number of projectors = 10
                           L of projector = 0
                           L of projector = 0
                           L of projector = 1
                           L of projector = 1
                           L of projector = 1
                           L of projector = 1
                           L of projector = 2
                           L of projector = 2
                           L of projector = 2
                           L of projector = 2
                PAO radial cut off (Bohr) = 15

 Read in pseudopotential file is /home/zujiandai/abacus/potential/dojo-soc/nc-fr-04_pbe_standard/Mn.upf
                     pseudopotential type = NC
          exchange-correlation functional = PBE
                 nonlocal core correction = 1
                        valence electrons = 15
                                     lmax = 2
                           number of zeta = 6
                     number of projectors = 10
                           L of projector = 0
                           L of projector = 0
                           L of projector = 1
                           L of projector = 1
                           L of projector = 1
                           L of projector = 1
                           L of projector = 2
                           L of projector = 2
                           L of projector = 2
                           L of projector = 2
                PAO radial cut off (Bohr) = 15

 Read in pseudopotential file is /home/zujiandai/abacus/potential/dojo-soc/nc-fr-04_pbe_standard/Bi.upf
                     pseudopotential type = NC
          exchange-correlation functional = PBE
                 nonlocal core correction = 1
                        valence electrons = 15
                                     lmax = 2
                           number of zeta = 5
                     number of projectors = 10
                           L of projector = 0
                           L of projector = 0
                           L of projector = 1
                           L of projector = 1
                           L of projector = 1
                           L of projector = 1
                           L of projector = 2
                           L of projector = 2
                           L of projector = 2
                           L of projector = 2
                PAO radial cut off (Bohr) = 15

 Read in pseudopotential file is /home/zujiandai/abacus/potential/dojo-soc/nc-fr-04_pbe_standard/Te.upf
                     pseudopotential type = NC
          exchange-correlation functional = PBE
                 nonlocal core correction = 1
                        valence electrons = 16
                                     lmax = 2
                           number of zeta = 5
                     number of projectors = 10
                           L of projector = 0
                           L of projector = 0
                           L of projector = 1
                           L of projector = 1
                           L of projector = 1
                           L of projector = 1
                           L of projector = 2
                           L of projector = 2
                           L of projector = 2
                           L of projector = 2
     initial pseudo atomic orbital number = 256
                                   NLOCAL = 540

 SETUP THE ELECTRONS NUMBER
           electron number of element Mn1 = 15
     total electron number of element Mn1 = 15
           electron number of element Mn2 = 15
     total electron number of element Mn2 = 15
            electron number of element Bi = 15
      total electron number of element Bi = 60
            electron number of element Te = 16
      total electron number of element Te = 128
                           occupied bands = 109
                                   NLOCAL = 540
                                   NBANDS = 261
                                   NBANDS = 261
 DONE : SETUP UNITCELL Time : 0.106235 (SEC)





 >>>>>>>>>>>>>>>>>>>>>>>>>>>>>>>>>>>>>>>>>>>>>>>>>>>>>>>>>>>>>>>>>>>>>>
 |                                                                    |
 | Setup K-points                                                     |
 | We setup the k-points according to input parameters.               |
 | The reduced k-points are set according to symmetry operations.     |
 | We treat the spin as another set of k-points.                      |
 |                                                                    |
 <<<<<<<<<<<<<<<<<<<<<<<<<<<<<<<<<<<<<<<<<<<<<<<<<<<<<<<<<<<<<<<<<<<<<<





 SETUP K-POINTS
                                    nspin = 4
                   Input type of k points = Monkhorst-Pack(Gamma)
                                   nkstot = 288

  KPOINTS            DIRECT_X            DIRECT_Y            DIRECT_Z              WEIGHT
        1                   0                   0                   0          0.00347222
        2           0.0833333                   0                   0          0.00347222
        3            0.166667                   0                   0          0.00347222
        4                0.25                   0                   0          0.00347222
        5            0.333333                   0                   0          0.00347222
        6            0.416667                   0                   0          0.00347222
        7                 0.5                   0                   0          0.00347222
        8            0.583333                   0                   0          0.00347222
        9            0.666667                   0                   0          0.00347222
       10                0.75                   0                   0          0.00347222
       11            0.833333                   0                   0          0.00347222
       12            0.916667                   0                   0          0.00347222
       13                   0           0.0833333                   0          0.00347222
       14           0.0833333           0.0833333                   0          0.00347222
       15            0.166667           0.0833333                   0          0.00347222
       16                0.25           0.0833333                   0          0.00347222
       17            0.333333           0.0833333                   0          0.00347222
       18            0.416667           0.0833333                   0          0.00347222
       19                 0.5           0.0833333                   0          0.00347222
       20            0.583333           0.0833333                   0          0.00347222
       21            0.666667           0.0833333                   0          0.00347222
       22                0.75           0.0833333                   0          0.00347222
       23            0.833333           0.0833333                   0          0.00347222
       24            0.916667           0.0833333                   0          0.00347222
       25                   0            0.166667                   0          0.00347222
       26           0.0833333            0.166667                   0          0.00347222
       27            0.166667            0.166667                   0          0.00347222
       28                0.25            0.166667                   0          0.00347222
       29            0.333333            0.166667                   0          0.00347222
       30            0.416667            0.166667                   0          0.00347222
       31                 0.5            0.166667                   0          0.00347222
       32            0.583333            0.166667                   0          0.00347222
       33            0.666667            0.166667                   0          0.00347222
       34                0.75            0.166667                   0          0.00347222
       35            0.833333            0.166667                   0          0.00347222
       36            0.916667            0.166667                   0          0.00347222
       37                   0                0.25                   0          0.00347222
       38           0.0833333                0.25                   0          0.00347222
       39            0.166667                0.25                   0          0.00347222
       40                0.25                0.25                   0          0.00347222
       41            0.333333                0.25                   0          0.00347222
       42            0.416667                0.25                   0          0.00347222
       43                 0.5                0.25                   0          0.00347222
       44            0.583333                0.25                   0          0.00347222
       45            0.666667                0.25                   0          0.00347222
       46                0.75                0.25                   0          0.00347222
       47            0.833333                0.25                   0          0.00347222
       48            0.916667                0.25                   0          0.00347222
       49                   0            0.333333                   0          0.00347222
       50           0.0833333            0.333333                   0          0.00347222
       51            0.166667            0.333333                   0          0.00347222
       52                0.25            0.333333                   0          0.00347222
       53            0.333333            0.333333                   0          0.00347222
       54            0.416667            0.333333                   0          0.00347222
       55                 0.5            0.333333                   0          0.00347222
       56            0.583333            0.333333                   0          0.00347222
       57            0.666667            0.333333                   0          0.00347222
       58                0.75            0.333333                   0          0.00347222
       59            0.833333            0.333333                   0          0.00347222
       60            0.916667            0.333333                   0          0.00347222
       61                   0            0.416667                   0          0.00347222
       62           0.0833333            0.416667                   0          0.00347222
       63            0.166667            0.416667                   0          0.00347222
       64                0.25            0.416667                   0          0.00347222
       65            0.333333            0.416667                   0          0.00347222
       66            0.416667            0.416667                   0          0.00347222
       67                 0.5            0.416667                   0          0.00347222
       68            0.583333            0.416667                   0          0.00347222
       69            0.666667            0.416667                   0          0.00347222
       70                0.75            0.416667                   0          0.00347222
       71            0.833333            0.416667                   0          0.00347222
       72            0.916667            0.416667                   0          0.00347222
       73                   0                 0.5                   0          0.00347222
       74           0.0833333                 0.5                   0          0.00347222
       75            0.166667                 0.5                   0          0.00347222
       76                0.25                 0.5                   0          0.00347222
       77            0.333333                 0.5                   0          0.00347222
       78            0.416667                 0.5                   0          0.00347222
       79                 0.5                 0.5                   0          0.00347222
       80            0.583333                 0.5                   0          0.00347222
       81            0.666667                 0.5                   0          0.00347222
       82                0.75                 0.5                   0          0.00347222
       83            0.833333                 0.5                   0          0.00347222
       84            0.916667                 0.5                   0          0.00347222
       85                   0            0.583333                   0          0.00347222
       86           0.0833333            0.583333                   0          0.00347222
       87            0.166667            0.583333                   0          0.00347222
       88                0.25            0.583333                   0          0.00347222
       89            0.333333            0.583333                   0          0.00347222
       90            0.416667            0.583333                   0          0.00347222
       91                 0.5            0.583333                   0          0.00347222
       92            0.583333            0.583333                   0          0.00347222
       93            0.666667            0.583333                   0          0.00347222
       94                0.75            0.583333                   0          0.00347222
       95            0.833333            0.583333                   0          0.00347222
       96            0.916667            0.583333                   0          0.00347222
       97                   0            0.666667                   0          0.00347222
       98           0.0833333            0.666667                   0          0.00347222
       99            0.166667            0.666667                   0          0.00347222
      100                0.25            0.666667                   0          0.00347222
      101            0.333333            0.666667                   0          0.00347222
      102            0.416667            0.666667                   0          0.00347222
      103                 0.5            0.666667                   0          0.00347222
      104            0.583333            0.666667                   0          0.00347222
      105            0.666667            0.666667                   0          0.00347222
      106                0.75            0.666667                   0          0.00347222
      107            0.833333            0.666667                   0          0.00347222
      108            0.916667            0.666667                   0          0.00347222
      109                   0                0.75                   0          0.00347222
      110           0.0833333                0.75                   0          0.00347222
      111            0.166667                0.75                   0          0.00347222
      112                0.25                0.75                   0          0.00347222
      113            0.333333                0.75                   0          0.00347222
      114            0.416667                0.75                   0          0.00347222
      115                 0.5                0.75                   0          0.00347222
      116            0.583333                0.75                   0          0.00347222
      117            0.666667                0.75                   0          0.00347222
      118                0.75                0.75                   0          0.00347222
      119            0.833333                0.75                   0          0.00347222
      120            0.916667                0.75                   0          0.00347222
      121                   0            0.833333                   0          0.00347222
      122           0.0833333            0.833333                   0          0.00347222
      123            0.166667            0.833333                   0          0.00347222
      124                0.25            0.833333                   0          0.00347222
      125            0.333333            0.833333                   0          0.00347222
      126            0.416667            0.833333                   0          0.00347222
      127                 0.5            0.833333                   0          0.00347222
      128            0.583333            0.833333                   0          0.00347222
      129            0.666667            0.833333                   0          0.00347222
      130                0.75            0.833333                   0          0.00347222
      131            0.833333            0.833333                   0          0.00347222
      132            0.916667            0.833333                   0          0.00347222
      133                   0            0.916667                   0          0.00347222
      134           0.0833333            0.916667                   0          0.00347222
      135            0.166667            0.916667                   0          0.00347222
      136                0.25            0.916667                   0          0.00347222
      137            0.333333            0.916667                   0          0.00347222
      138            0.416667            0.916667                   0          0.00347222
      139                 0.5            0.916667                   0          0.00347222
      140            0.583333            0.916667                   0          0.00347222
      141            0.666667            0.916667                   0          0.00347222
      142                0.75            0.916667                   0          0.00347222
      143            0.833333            0.916667                   0          0.00347222
      144            0.916667            0.916667                   0          0.00347222
      145                   0                   0                 0.5          0.00347222
      146           0.0833333                   0                 0.5          0.00347222
      147            0.166667                   0                 0.5          0.00347222
      148                0.25                   0                 0.5          0.00347222
      149            0.333333                   0                 0.5          0.00347222
      150            0.416667                   0                 0.5          0.00347222
      151                 0.5                   0                 0.5          0.00347222
      152            0.583333                   0                 0.5          0.00347222
      153            0.666667                   0                 0.5          0.00347222
      154                0.75                   0                 0.5          0.00347222
      155            0.833333                   0                 0.5          0.00347222
      156            0.916667                   0                 0.5          0.00347222
      157                   0           0.0833333                 0.5          0.00347222
      158           0.0833333           0.0833333                 0.5          0.00347222
      159            0.166667           0.0833333                 0.5          0.00347222
      160                0.25           0.0833333                 0.5          0.00347222
      161            0.333333           0.0833333                 0.5          0.00347222
      162            0.416667           0.0833333                 0.5          0.00347222
      163                 0.5           0.0833333                 0.5          0.00347222
      164            0.583333           0.0833333                 0.5          0.00347222
      165            0.666667           0.0833333                 0.5          0.00347222
      166                0.75           0.0833333                 0.5          0.00347222
      167            0.833333           0.0833333                 0.5          0.00347222
      168            0.916667           0.0833333                 0.5          0.00347222
      169                   0            0.166667                 0.5          0.00347222
      170           0.0833333            0.166667                 0.5          0.00347222
      171            0.166667            0.166667                 0.5          0.00347222
      172                0.25            0.166667                 0.5          0.00347222
      173            0.333333            0.166667                 0.5          0.00347222
      174            0.416667            0.166667                 0.5          0.00347222
      175                 0.5            0.166667                 0.5          0.00347222
      176            0.583333            0.166667                 0.5          0.00347222
      177            0.666667            0.166667                 0.5          0.00347222
      178                0.75            0.166667                 0.5          0.00347222
      179            0.833333            0.166667                 0.5          0.00347222
      180            0.916667            0.166667                 0.5          0.00347222
      181                   0                0.25                 0.5          0.00347222
      182           0.0833333                0.25                 0.5          0.00347222
      183            0.166667                0.25                 0.5          0.00347222
      184                0.25                0.25                 0.5          0.00347222
      185            0.333333                0.25                 0.5          0.00347222
      186            0.416667                0.25                 0.5          0.00347222
      187                 0.5                0.25                 0.5          0.00347222
      188            0.583333                0.25                 0.5          0.00347222
      189            0.666667                0.25                 0.5          0.00347222
      190                0.75                0.25                 0.5          0.00347222
      191            0.833333                0.25                 0.5          0.00347222
      192            0.916667                0.25                 0.5          0.00347222
      193                   0            0.333333                 0.5          0.00347222
      194           0.0833333            0.333333                 0.5          0.00347222
      195            0.166667            0.333333                 0.5          0.00347222
      196                0.25            0.333333                 0.5          0.00347222
      197            0.333333            0.333333                 0.5          0.00347222
      198            0.416667            0.333333                 0.5          0.00347222
      199                 0.5            0.333333                 0.5          0.00347222
      200            0.583333            0.333333                 0.5          0.00347222
      201            0.666667            0.333333                 0.5          0.00347222
      202                0.75            0.333333                 0.5          0.00347222
      203            0.833333            0.333333                 0.5          0.00347222
      204            0.916667            0.333333                 0.5          0.00347222
      205                   0            0.416667                 0.5          0.00347222
      206           0.0833333            0.416667                 0.5          0.00347222
      207            0.166667            0.416667                 0.5          0.00347222
      208                0.25            0.416667                 0.5          0.00347222
      209            0.333333            0.416667                 0.5          0.00347222
      210            0.416667            0.416667                 0.5          0.00347222
      211                 0.5            0.416667                 0.5          0.00347222
      212            0.583333            0.416667                 0.5          0.00347222
      213            0.666667            0.416667                 0.5          0.00347222
      214                0.75            0.416667                 0.5          0.00347222
      215            0.833333            0.416667                 0.5          0.00347222
      216            0.916667            0.416667                 0.5          0.00347222
      217                   0                 0.5                 0.5          0.00347222
      218           0.0833333                 0.5                 0.5          0.00347222
      219            0.166667                 0.5                 0.5          0.00347222
      220                0.25                 0.5                 0.5          0.00347222
      221            0.333333                 0.5                 0.5          0.00347222
      222            0.416667                 0.5                 0.5          0.00347222
      223                 0.5                 0.5                 0.5          0.00347222
      224            0.583333                 0.5                 0.5          0.00347222
      225            0.666667                 0.5                 0.5          0.00347222
      226                0.75                 0.5                 0.5          0.00347222
      227            0.833333                 0.5                 0.5          0.00347222
      228            0.916667                 0.5                 0.5          0.00347222
      229                   0            0.583333                 0.5          0.00347222
      230           0.0833333            0.583333                 0.5          0.00347222
      231            0.166667            0.583333                 0.5          0.00347222
      232                0.25            0.583333                 0.5          0.00347222
      233            0.333333            0.583333                 0.5          0.00347222
      234            0.416667            0.583333                 0.5          0.00347222
      235                 0.5            0.583333                 0.5          0.00347222
      236            0.583333            0.583333                 0.5          0.00347222
      237            0.666667            0.583333                 0.5          0.00347222
      238                0.75            0.583333                 0.5          0.00347222
      239            0.833333            0.583333                 0.5          0.00347222
      240            0.916667            0.583333                 0.5          0.00347222
      241                   0            0.666667                 0.5          0.00347222
      242           0.0833333            0.666667                 0.5          0.00347222
      243            0.166667            0.666667                 0.5          0.00347222
      244                0.25            0.666667                 0.5          0.00347222
      245            0.333333            0.666667                 0.5          0.00347222
      246            0.416667            0.666667                 0.5          0.00347222
      247                 0.5            0.666667                 0.5          0.00347222
      248            0.583333            0.666667                 0.5          0.00347222
      249            0.666667            0.666667                 0.5          0.00347222
      250                0.75            0.666667                 0.5          0.00347222
      251            0.833333            0.666667                 0.5          0.00347222
      252            0.916667            0.666667                 0.5          0.00347222
      253                   0                0.75                 0.5          0.00347222
      254           0.0833333                0.75                 0.5          0.00347222
      255            0.166667                0.75                 0.5          0.00347222
      256                0.25                0.75                 0.5          0.00347222
      257            0.333333                0.75                 0.5          0.00347222
      258            0.416667                0.75                 0.5          0.00347222
      259                 0.5                0.75                 0.5          0.00347222
      260            0.583333                0.75                 0.5          0.00347222
      261            0.666667                0.75                 0.5          0.00347222
      262                0.75                0.75                 0.5          0.00347222
      263            0.833333                0.75                 0.5          0.00347222
      264            0.916667                0.75                 0.5          0.00347222
      265                   0            0.833333                 0.5          0.00347222
      266           0.0833333            0.833333                 0.5          0.00347222
      267            0.166667            0.833333                 0.5          0.00347222
      268                0.25            0.833333                 0.5          0.00347222
      269            0.333333            0.833333                 0.5          0.00347222
      270            0.416667            0.833333                 0.5          0.00347222
      271                 0.5            0.833333                 0.5          0.00347222
      272            0.583333            0.833333                 0.5          0.00347222
      273            0.666667            0.833333                 0.5          0.00347222
      274                0.75            0.833333                 0.5          0.00347222
      275            0.833333            0.833333                 0.5          0.00347222
      276            0.916667            0.833333                 0.5          0.00347222
      277                   0            0.916667                 0.5          0.00347222
      278           0.0833333            0.916667                 0.5          0.00347222
      279            0.166667            0.916667                 0.5          0.00347222
      280                0.25            0.916667                 0.5          0.00347222
      281            0.333333            0.916667                 0.5          0.00347222
      282            0.416667            0.916667                 0.5          0.00347222
      283                 0.5            0.916667                 0.5          0.00347222
      284            0.583333            0.916667                 0.5          0.00347222
      285            0.666667            0.916667                 0.5          0.00347222
      286                0.75            0.916667                 0.5          0.00347222
      287            0.833333            0.916667                 0.5          0.00347222
      288            0.916667            0.916667                 0.5          0.00347222

           k-point number in this process = 288
       minimum distributed K point number = 288

  KPOINTS         CARTESIAN_X         CARTESIAN_Y         CARTESIAN_Z              WEIGHT
        1                   0                   0                   0          0.00347222
        2           0.0192291          -0.0111019         -0.00203708          0.00347222
        3           0.0384583          -0.0222039         -0.00407416          0.00347222
        4           0.0576874          -0.0333058         -0.00611124          0.00347222
        5           0.0769166          -0.0444078         -0.00814833          0.00347222
        6           0.0961457          -0.0555097          -0.0101854          0.00347222
        7            0.115375          -0.0666117          -0.0122225          0.00347222
        8            0.134604          -0.0777136          -0.0142596          0.00347222
        9            0.153833          -0.0888156          -0.0162967          0.00347222
       10            0.173062          -0.0999175          -0.0183337          0.00347222
       11            0.192291           -0.111019          -0.0203708          0.00347222
       12            0.211521           -0.122121          -0.0224079          0.00347222
       13                   0           0.0222039         -0.00203708          0.00347222
       14           0.0192291           0.0111019         -0.00407416          0.00347222
       15           0.0384583                   0         -0.00611124          0.00347222
       16           0.0576874          -0.0111019         -0.00814833          0.00347222
       17           0.0769166          -0.0222039          -0.0101854          0.00347222
       18           0.0961457          -0.0333058          -0.0122225          0.00347222
       19            0.115375          -0.0444078          -0.0142596          0.00347222
       20            0.134604          -0.0555097          -0.0162967          0.00347222
       21            0.153833          -0.0666117          -0.0183337          0.00347222
       22            0.173062          -0.0777136          -0.0203708          0.00347222
       23            0.192291          -0.0888156          -0.0224079          0.00347222
       24            0.211521          -0.0999175           -0.024445          0.00347222
       25                   0           0.0444078         -0.00407416          0.00347222
       26           0.0192291           0.0333058         -0.00611124          0.00347222
       27           0.0384583           0.0222039         -0.00814833          0.00347222
       28           0.0576874           0.0111019          -0.0101854          0.00347222
       29           0.0769166                   0          -0.0122225          0.00347222
       30           0.0961457          -0.0111019          -0.0142596          0.00347222
       31            0.115375          -0.0222039          -0.0162967          0.00347222
       32            0.134604          -0.0333058          -0.0183337          0.00347222
       33            0.153833          -0.0444078          -0.0203708          0.00347222
       34            0.173062          -0.0555097          -0.0224079          0.00347222
       35            0.192291          -0.0666117           -0.024445          0.00347222
       36            0.211521          -0.0777136          -0.0264821          0.00347222
       37                   0           0.0666117         -0.00611124          0.00347222
       38           0.0192291           0.0555097         -0.00814833          0.00347222
       39           0.0384583           0.0444078          -0.0101854          0.00347222
       40           0.0576874           0.0333058          -0.0122225          0.00347222
       41           0.0769166           0.0222039          -0.0142596          0.00347222
       42           0.0961457           0.0111019          -0.0162967          0.00347222
       43            0.115375                   0          -0.0183337          0.00347222
       44            0.134604          -0.0111019          -0.0203708          0.00347222
       45            0.153833          -0.0222039          -0.0224079          0.00347222
       46            0.173062          -0.0333058           -0.024445          0.00347222
       47            0.192291          -0.0444078          -0.0264821          0.00347222
       48            0.211521          -0.0555097          -0.0285191          0.00347222
       49                   0           0.0888156         -0.00814833          0.00347222
       50           0.0192291           0.0777136          -0.0101854          0.00347222
       51           0.0384583           0.0666117          -0.0122225          0.00347222
       52           0.0576874           0.0555097          -0.0142596          0.00347222
       53           0.0769166           0.0444078          -0.0162967          0.00347222
       54           0.0961457           0.0333058          -0.0183337          0.00347222
       55            0.115375           0.0222039          -0.0203708          0.00347222
       56            0.134604           0.0111019          -0.0224079          0.00347222
       57            0.153833                   0           -0.024445          0.00347222
       58            0.173062          -0.0111019          -0.0264821          0.00347222
       59            0.192291          -0.0222039          -0.0285191          0.00347222
       60            0.211521          -0.0333058          -0.0305562          0.00347222
       61                   0            0.111019          -0.0101854          0.00347222
       62           0.0192291           0.0999175          -0.0122225          0.00347222
       63           0.0384583           0.0888156          -0.0142596          0.00347222
       64           0.0576874           0.0777136          -0.0162967          0.00347222
       65           0.0769166           0.0666117          -0.0183337          0.00347222
       66           0.0961457           0.0555097          -0.0203708          0.00347222
       67            0.115375           0.0444078          -0.0224079          0.00347222
       68            0.134604           0.0333058           -0.024445          0.00347222
       69            0.153833           0.0222039          -0.0264821          0.00347222
       70            0.173062           0.0111019          -0.0285191          0.00347222
       71            0.192291                   0          -0.0305562          0.00347222
       72            0.211521          -0.0111019          -0.0325933          0.00347222
       73                   0            0.133223          -0.0122225          0.00347222
       74           0.0192291            0.122121          -0.0142596          0.00347222
       75           0.0384583            0.111019          -0.0162967          0.00347222
       76           0.0576874           0.0999175          -0.0183337          0.00347222
       77           0.0769166           0.0888156          -0.0203708          0.00347222
       78           0.0961457           0.0777136          -0.0224079          0.00347222
       79            0.115375           0.0666117           -0.024445          0.00347222
       80            0.134604           0.0555097          -0.0264821          0.00347222
       81            0.153833           0.0444078          -0.0285191          0.00347222
       82            0.173062           0.0333058          -0.0305562          0.00347222
       83            0.192291           0.0222039          -0.0325933          0.00347222
       84            0.211521           0.0111019          -0.0346304          0.00347222
       85                   0            0.155427          -0.0142596          0.00347222
       86           0.0192291            0.144325          -0.0162967          0.00347222
       87           0.0384583            0.133223          -0.0183337          0.00347222
       88           0.0576874            0.122121          -0.0203708          0.00347222
       89           0.0769166            0.111019          -0.0224079          0.00347222
       90           0.0961457           0.0999175           -0.024445          0.00347222
       91            0.115375           0.0888156          -0.0264821          0.00347222
       92            0.134604           0.0777136          -0.0285191          0.00347222
       93            0.153833           0.0666117          -0.0305562          0.00347222
       94            0.173062           0.0555097          -0.0325933          0.00347222
       95            0.192291           0.0444078          -0.0346304          0.00347222
       96            0.211521           0.0333058          -0.0366675          0.00347222
       97                   0            0.177631          -0.0162967          0.00347222
       98           0.0192291            0.166529          -0.0183337          0.00347222
       99           0.0384583            0.155427          -0.0203708          0.00347222
      100           0.0576874            0.144325          -0.0224079          0.00347222
      101           0.0769166            0.133223           -0.024445          0.00347222
      102           0.0961457            0.122121          -0.0264821          0.00347222
      103            0.115375            0.111019          -0.0285191          0.00347222
      104            0.134604           0.0999175          -0.0305562          0.00347222
      105            0.153833           0.0888156          -0.0325933          0.00347222
      106            0.173062           0.0777136          -0.0346304          0.00347222
      107            0.192291           0.0666117          -0.0366675          0.00347222
      108            0.211521           0.0555097          -0.0387046          0.00347222
      109                   0            0.199835          -0.0183337          0.00347222
      110           0.0192291            0.188733          -0.0203708          0.00347222
      111           0.0384583            0.177631          -0.0224079          0.00347222
      112           0.0576874            0.166529           -0.024445          0.00347222
      113           0.0769166            0.155427          -0.0264821          0.00347222
      114           0.0961457            0.144325          -0.0285191          0.00347222
      115            0.115375            0.133223          -0.0305562          0.00347222
      116            0.134604            0.122121          -0.0325933          0.00347222
      117            0.153833            0.111019          -0.0346304          0.00347222
      118            0.173062           0.0999175          -0.0366675          0.00347222
      119            0.192291           0.0888156          -0.0387046          0.00347222
      120            0.211521           0.0777136          -0.0407416          0.00347222
      121                   0            0.222039          -0.0203708          0.00347222
      122           0.0192291            0.210937          -0.0224079          0.00347222
      123           0.0384583            0.199835           -0.024445          0.00347222
      124           0.0576874            0.188733          -0.0264821          0.00347222
      125           0.0769166            0.177631          -0.0285191          0.00347222
      126           0.0961457            0.166529          -0.0305562          0.00347222
      127            0.115375            0.155427          -0.0325933          0.00347222
      128            0.134604            0.144325          -0.0346304          0.00347222
      129            0.153833            0.133223          -0.0366675          0.00347222
      130            0.173062            0.122121          -0.0387046          0.00347222
      131            0.192291            0.111019          -0.0407416          0.00347222
      132            0.211521           0.0999175          -0.0427787          0.00347222
      133                   0            0.244243          -0.0224079          0.00347222
      134           0.0192291            0.233141           -0.024445          0.00347222
      135           0.0384583            0.222039          -0.0264821          0.00347222
      136           0.0576874            0.210937          -0.0285191          0.00347222
      137           0.0769166            0.199835          -0.0305562          0.00347222
      138           0.0961457            0.188733          -0.0325933          0.00347222
      139            0.115375            0.177631          -0.0346304          0.00347222
      140            0.134604            0.166529          -0.0366675          0.00347222
      141            0.153833            0.155427          -0.0387046          0.00347222
      142            0.173062            0.144325          -0.0407416          0.00347222
      143            0.192291            0.133223          -0.0427787          0.00347222
      144            0.211521            0.122121          -0.0448158          0.00347222
      145                   0                   0           0.0183328          0.00347222
      146           0.0192291          -0.0111019           0.0162957          0.00347222
      147           0.0384583          -0.0222039           0.0142587          0.00347222
      148           0.0576874          -0.0333058           0.0122216          0.00347222
      149           0.0769166          -0.0444078           0.0101845          0.00347222
      150           0.0961457          -0.0555097          0.00814742          0.00347222
      151            0.115375          -0.0666117          0.00611034          0.00347222
      152            0.134604          -0.0777136          0.00407326          0.00347222
      153            0.153833          -0.0888156          0.00203618          0.00347222
      154            0.173062          -0.0999175        -9.06101e-07          0.00347222
      155            0.192291           -0.111019         -0.00203799          0.00347222
      156            0.211521           -0.122121         -0.00407507          0.00347222
      157                   0           0.0222039           0.0162957          0.00347222
      158           0.0192291           0.0111019           0.0142587          0.00347222
      159           0.0384583                   0           0.0122216          0.00347222
      160           0.0576874          -0.0111019           0.0101845          0.00347222
      161           0.0769166          -0.0222039          0.00814742          0.00347222
      162           0.0961457          -0.0333058          0.00611034          0.00347222
      163            0.115375          -0.0444078          0.00407326          0.00347222
      164            0.134604          -0.0555097          0.00203618          0.00347222
      165            0.153833          -0.0666117        -9.06101e-07          0.00347222
      166            0.173062          -0.0777136         -0.00203799          0.00347222
      167            0.192291          -0.0888156         -0.00407507          0.00347222
      168            0.211521          -0.0999175         -0.00611215          0.00347222
      169                   0           0.0444078           0.0142587          0.00347222
      170           0.0192291           0.0333058           0.0122216          0.00347222
      171           0.0384583           0.0222039           0.0101845          0.00347222
      172           0.0576874           0.0111019          0.00814742          0.00347222
      173           0.0769166                   0          0.00611034          0.00347222
      174           0.0961457          -0.0111019          0.00407326          0.00347222
      175            0.115375          -0.0222039          0.00203618          0.00347222
      176            0.134604          -0.0333058        -9.06101e-07          0.00347222
      177            0.153833          -0.0444078         -0.00203799          0.00347222
      178            0.173062          -0.0555097         -0.00407507          0.00347222
      179            0.192291          -0.0666117         -0.00611215          0.00347222
      180            0.211521          -0.0777136         -0.00814923          0.00347222
      181                   0           0.0666117           0.0122216          0.00347222
      182           0.0192291           0.0555097           0.0101845          0.00347222
      183           0.0384583           0.0444078          0.00814742          0.00347222
      184           0.0576874           0.0333058          0.00611034          0.00347222
      185           0.0769166           0.0222039          0.00407326          0.00347222
      186           0.0961457           0.0111019          0.00203618          0.00347222
      187            0.115375                   0        -9.06101e-07          0.00347222
      188            0.134604          -0.0111019         -0.00203799          0.00347222
      189            0.153833          -0.0222039         -0.00407507          0.00347222
      190            0.173062          -0.0333058         -0.00611215          0.00347222
      191            0.192291          -0.0444078         -0.00814923          0.00347222
      192            0.211521          -0.0555097          -0.0101863          0.00347222
      193                   0           0.0888156           0.0101845          0.00347222
      194           0.0192291           0.0777136          0.00814742          0.00347222
      195           0.0384583           0.0666117          0.00611034          0.00347222
      196           0.0576874           0.0555097          0.00407326          0.00347222
      197           0.0769166           0.0444078          0.00203618          0.00347222
      198           0.0961457           0.0333058        -9.06101e-07          0.00347222
      199            0.115375           0.0222039         -0.00203799          0.00347222
      200            0.134604           0.0111019         -0.00407507          0.00347222
      201            0.153833                   0         -0.00611215          0.00347222
      202            0.173062          -0.0111019         -0.00814923          0.00347222
      203            0.192291          -0.0222039          -0.0101863          0.00347222
      204            0.211521          -0.0333058          -0.0122234          0.00347222
      205                   0            0.111019          0.00814742          0.00347222
      206           0.0192291           0.0999175          0.00611034          0.00347222
      207           0.0384583           0.0888156          0.00407326          0.00347222
      208           0.0576874           0.0777136          0.00203618          0.00347222
      209           0.0769166           0.0666117        -9.06101e-07          0.00347222
      210           0.0961457           0.0555097         -0.00203799          0.00347222
      211            0.115375           0.0444078         -0.00407507          0.00347222
      212            0.134604           0.0333058         -0.00611215          0.00347222
      213            0.153833           0.0222039         -0.00814923          0.00347222
      214            0.173062           0.0111019          -0.0101863          0.00347222
      215            0.192291                   0          -0.0122234          0.00347222
      216            0.211521          -0.0111019          -0.0142605          0.00347222
      217                   0            0.133223          0.00611034          0.00347222
      218           0.0192291            0.122121          0.00407326          0.00347222
      219           0.0384583            0.111019          0.00203618          0.00347222
      220           0.0576874           0.0999175        -9.06101e-07          0.00347222
      221           0.0769166           0.0888156         -0.00203799          0.00347222
      222           0.0961457           0.0777136         -0.00407507          0.00347222
      223            0.115375           0.0666117         -0.00611215          0.00347222
      224            0.134604           0.0555097         -0.00814923          0.00347222
      225            0.153833           0.0444078          -0.0101863          0.00347222
      226            0.173062           0.0333058          -0.0122234          0.00347222
      227            0.192291           0.0222039          -0.0142605          0.00347222
      228            0.211521           0.0111019          -0.0162976          0.00347222
      229                   0            0.155427          0.00407326          0.00347222
      230           0.0192291            0.144325          0.00203618          0.00347222
      231           0.0384583            0.133223          -9.061e-07          0.00347222
      232           0.0576874            0.122121         -0.00203799          0.00347222
      233           0.0769166            0.111019         -0.00407507          0.00347222
      234           0.0961457           0.0999175         -0.00611215          0.00347222
      235            0.115375           0.0888156         -0.00814923          0.00347222
      236            0.134604           0.0777136          -0.0101863          0.00347222
      237            0.153833           0.0666117          -0.0122234          0.00347222
      238            0.173062           0.0555097          -0.0142605          0.00347222
      239            0.192291           0.0444078          -0.0162976          0.00347222
      240            0.211521           0.0333058          -0.0183346          0.00347222
      241                   0            0.177631          0.00203618          0.00347222
      242           0.0192291            0.166529          -9.061e-07          0.00347222
      243           0.0384583            0.155427         -0.00203799          0.00347222
      244           0.0576874            0.144325         -0.00407507          0.00347222
      245           0.0769166            0.133223         -0.00611215          0.00347222
      246           0.0961457            0.122121         -0.00814923          0.00347222
      247            0.115375            0.111019          -0.0101863          0.00347222
      248            0.134604           0.0999175          -0.0122234          0.00347222
      249            0.153833           0.0888156          -0.0142605          0.00347222
      250            0.173062           0.0777136          -0.0162976          0.00347222
      251            0.192291           0.0666117          -0.0183346          0.00347222
      252            0.211521           0.0555097          -0.0203717          0.00347222
      253                   0            0.199835          -9.061e-07          0.00347222
      254           0.0192291            0.188733         -0.00203799          0.00347222
      255           0.0384583            0.177631         -0.00407507          0.00347222
      256           0.0576874            0.166529         -0.00611215          0.00347222
      257           0.0769166            0.155427         -0.00814923          0.00347222
      258           0.0961457            0.144325          -0.0101863          0.00347222
      259            0.115375            0.133223          -0.0122234          0.00347222
      260            0.134604            0.122121          -0.0142605          0.00347222
      261            0.153833            0.111019          -0.0162976          0.00347222
      262            0.173062           0.0999175          -0.0183346          0.00347222
      263            0.192291           0.0888156          -0.0203717          0.00347222
      264            0.211521           0.0777136          -0.0224088          0.00347222
      265                   0            0.222039         -0.00203799          0.00347222
      266           0.0192291            0.210937         -0.00407507          0.00347222
      267           0.0384583            0.199835         -0.00611215          0.00347222
      268           0.0576874            0.188733         -0.00814923          0.00347222
      269           0.0769166            0.177631          -0.0101863          0.00347222
      270           0.0961457            0.166529          -0.0122234          0.00347222
      271            0.115375            0.155427          -0.0142605          0.00347222
      272            0.134604            0.144325          -0.0162976          0.00347222
      273            0.153833            0.133223          -0.0183346          0.00347222
      274            0.173062            0.122121          -0.0203717          0.00347222
      275            0.192291            0.111019          -0.0224088          0.00347222
      276            0.211521           0.0999175          -0.0244459          0.00347222
      277                   0            0.244243         -0.00407507          0.00347222
      278           0.0192291            0.233141         -0.00611215          0.00347222
      279           0.0384583            0.222039         -0.00814923          0.00347222
      280           0.0576874            0.210937          -0.0101863          0.00347222
      281           0.0769166            0.199835          -0.0122234          0.00347222
      282           0.0961457            0.188733          -0.0142605          0.00347222
      283            0.115375            0.177631          -0.0162976          0.00347222
      284            0.134604            0.166529          -0.0183346          0.00347222
      285            0.153833            0.155427          -0.0203717          0.00347222
      286            0.173062            0.144325          -0.0224088          0.00347222
      287            0.192291            0.133223          -0.0244459          0.00347222
      288            0.211521            0.122121           -0.026483          0.00347222

  KPOINTS            DIRECT_X            DIRECT_Y            DIRECT_Z              WEIGHT
        1                   0                   0                   0          0.00347222
        2           0.0833333                   0                   0          0.00347222
        3            0.166667                   0                   0          0.00347222
        4                0.25                   0                   0          0.00347222
        5            0.333333                   0                   0          0.00347222
        6            0.416667                   0                   0          0.00347222
        7                 0.5                   0                   0          0.00347222
        8            0.583333                   0                   0          0.00347222
        9            0.666667                   0                   0          0.00347222
       10                0.75                   0                   0          0.00347222
       11            0.833333                   0                   0          0.00347222
       12            0.916667                   0                   0          0.00347222
       13                   0           0.0833333                   0          0.00347222
       14           0.0833333           0.0833333                   0          0.00347222
       15            0.166667           0.0833333                   0          0.00347222
       16                0.25           0.0833333                   0          0.00347222
       17            0.333333           0.0833333                   0          0.00347222
       18            0.416667           0.0833333                   0          0.00347222
       19                 0.5           0.0833333                   0          0.00347222
       20            0.583333           0.0833333                   0          0.00347222
       21            0.666667           0.0833333                   0          0.00347222
       22                0.75           0.0833333                   0          0.00347222
       23            0.833333           0.0833333                   0          0.00347222
       24            0.916667           0.0833333                   0          0.00347222
       25                   0            0.166667                   0          0.00347222
       26           0.0833333            0.166667                   0          0.00347222
       27            0.166667            0.166667                   0          0.00347222
       28                0.25            0.166667                   0          0.00347222
       29            0.333333            0.166667                   0          0.00347222
       30            0.416667            0.166667                   0          0.00347222
       31                 0.5            0.166667                   0          0.00347222
       32            0.583333            0.166667                   0          0.00347222
       33            0.666667            0.166667                   0          0.00347222
       34                0.75            0.166667                   0          0.00347222
       35            0.833333            0.166667                   0          0.00347222
       36            0.916667            0.166667                   0          0.00347222
       37                   0                0.25                   0          0.00347222
       38           0.0833333                0.25                   0          0.00347222
       39            0.166667                0.25                   0          0.00347222
       40                0.25                0.25                   0          0.00347222
       41            0.333333                0.25                   0          0.00347222
       42            0.416667                0.25                   0          0.00347222
       43                 0.5                0.25                   0          0.00347222
       44            0.583333                0.25                   0          0.00347222
       45            0.666667                0.25                   0          0.00347222
       46                0.75                0.25                   0          0.00347222
       47            0.833333                0.25                   0          0.00347222
       48            0.916667                0.25                   0          0.00347222
       49                   0            0.333333                   0          0.00347222
       50           0.0833333            0.333333                   0          0.00347222
       51            0.166667            0.333333                   0          0.00347222
       52                0.25            0.333333                   0          0.00347222
       53            0.333333            0.333333                   0          0.00347222
       54            0.416667            0.333333                   0          0.00347222
       55                 0.5            0.333333                   0          0.00347222
       56            0.583333            0.333333                   0          0.00347222
       57            0.666667            0.333333                   0          0.00347222
       58                0.75            0.333333                   0          0.00347222
       59            0.833333            0.333333                   0          0.00347222
       60            0.916667            0.333333                   0          0.00347222
       61                   0            0.416667                   0          0.00347222
       62           0.0833333            0.416667                   0          0.00347222
       63            0.166667            0.416667                   0          0.00347222
       64                0.25            0.416667                   0          0.00347222
       65            0.333333            0.416667                   0          0.00347222
       66            0.416667            0.416667                   0          0.00347222
       67                 0.5            0.416667                   0          0.00347222
       68            0.583333            0.416667                   0          0.00347222
       69            0.666667            0.416667                   0          0.00347222
       70                0.75            0.416667                   0          0.00347222
       71            0.833333            0.416667                   0          0.00347222
       72            0.916667            0.416667                   0          0.00347222
       73                   0                 0.5                   0          0.00347222
       74           0.0833333                 0.5                   0          0.00347222
       75            0.166667                 0.5                   0          0.00347222
       76                0.25                 0.5                   0          0.00347222
       77            0.333333                 0.5                   0          0.00347222
       78            0.416667                 0.5                   0          0.00347222
       79                 0.5                 0.5                   0          0.00347222
       80            0.583333                 0.5                   0          0.00347222
       81            0.666667                 0.5                   0          0.00347222
       82                0.75                 0.5                   0          0.00347222
       83            0.833333                 0.5                   0          0.00347222
       84            0.916667                 0.5                   0          0.00347222
       85                   0            0.583333                   0          0.00347222
       86           0.0833333            0.583333                   0          0.00347222
       87            0.166667            0.583333                   0          0.00347222
       88                0.25            0.583333                   0          0.00347222
       89            0.333333            0.583333                   0          0.00347222
       90            0.416667            0.583333                   0          0.00347222
       91                 0.5            0.583333                   0          0.00347222
       92            0.583333            0.583333                   0          0.00347222
       93            0.666667            0.583333                   0          0.00347222
       94                0.75            0.583333                   0          0.00347222
       95            0.833333            0.583333                   0          0.00347222
       96            0.916667            0.583333                   0          0.00347222
       97                   0            0.666667                   0          0.00347222
       98           0.0833333            0.666667                   0          0.00347222
       99            0.166667            0.666667                   0          0.00347222
      100                0.25            0.666667                   0          0.00347222
      101            0.333333            0.666667                   0          0.00347222
      102            0.416667            0.666667                   0          0.00347222
      103                 0.5            0.666667                   0          0.00347222
      104            0.583333            0.666667                   0          0.00347222
      105            0.666667            0.666667                   0          0.00347222
      106                0.75            0.666667                   0          0.00347222
      107            0.833333            0.666667                   0          0.00347222
      108            0.916667            0.666667                   0          0.00347222
      109                   0                0.75                   0          0.00347222
      110           0.0833333                0.75                   0          0.00347222
      111            0.166667                0.75                   0          0.00347222
      112                0.25                0.75                   0          0.00347222
      113            0.333333                0.75                   0          0.00347222
      114            0.416667                0.75                   0          0.00347222
      115                 0.5                0.75                   0          0.00347222
      116            0.583333                0.75                   0          0.00347222
      117            0.666667                0.75                   0          0.00347222
      118                0.75                0.75                   0          0.00347222
      119            0.833333                0.75                   0          0.00347222
      120            0.916667                0.75                   0          0.00347222
      121                   0            0.833333                   0          0.00347222
      122           0.0833333            0.833333                   0          0.00347222
      123            0.166667            0.833333                   0          0.00347222
      124                0.25            0.833333                   0          0.00347222
      125            0.333333            0.833333                   0          0.00347222
      126            0.416667            0.833333                   0          0.00347222
      127                 0.5            0.833333                   0          0.00347222
      128            0.583333            0.833333                   0          0.00347222
      129            0.666667            0.833333                   0          0.00347222
      130                0.75            0.833333                   0          0.00347222
      131            0.833333            0.833333                   0          0.00347222
      132            0.916667            0.833333                   0          0.00347222
      133                   0            0.916667                   0          0.00347222
      134           0.0833333            0.916667                   0          0.00347222
      135            0.166667            0.916667                   0          0.00347222
      136                0.25            0.916667                   0          0.00347222
      137            0.333333            0.916667                   0          0.00347222
[...]
     184       7.092094       0.003472
     185       7.194739       0.003472
     186       7.194739       0.003472
     187       7.469523       0.003472
     188       7.469524       0.003472
     189       7.572510       0.003472
     190       7.572512       0.003472
     191       7.732938       0.003472
     192       7.732941       0.003472
     193       7.944571       0.003472
     194       7.944572       0.003472
     195       8.015815       0.003472
     196       8.015817       0.003472
     197       8.138002       0.003472
     198       8.138003       0.003472
     199       8.233408       0.003472
     200       8.233409       0.003472
     201       8.403865       0.003472
     202       8.403866       0.003472
     203       8.613094       0.003472
     204       8.613095       0.003472
     205       8.693591       0.003472
     206       8.693592       0.003472
     207       8.806306       0.003472
     208       8.806307       0.003472
     209       8.899017       0.003472
     210       8.899018       0.003472
     211       9.096927       0.003472
     212       9.096927       0.003472
     213       9.212823       0.003472
     214       9.212824       0.003472
     215       9.316717       0.003472
     216       9.316718       0.003472
     217       9.431048       0.003472
     218       9.431048       0.003472
     219      10.259878       0.000000
     220      10.259878       0.000000
     221      10.392343       0.000000
     222      10.392343       0.000000
     223      10.594548       0.000000
     224      10.594548       0.000000
     225      10.678821       0.000000
     226      10.678822       0.000000
     227      11.326908       0.000000
     228      11.326909       0.000000
     229      11.473805       0.000000
     230      11.473805       0.000000
     231      11.649808       0.000000
     232      11.649809       0.000000
     233      11.693618       0.000000
     234      11.693619       0.000000
     235      11.803440       0.000000
     236      11.803441       0.000000
     237      11.872592       0.000000
     238      11.872593       0.000000
     239      11.940605       0.000000
     240      11.940606       0.000000
     241      12.021141       0.000000
     242      12.021142       0.000000
     243      12.098750       0.000000
     244      12.098750       0.000000
     245      12.211655       0.000000
     246      12.211656       0.000000
     247      12.366860       0.000000
     248      12.366860       0.000000
     249      12.656826       0.000000
     250      12.656827       0.000000
     251      12.855221       0.000000
     252      12.855222       0.000000
     253      13.947820       0.000000
     254      13.947821       0.000000
     255      14.982680       0.000000
     256      14.982680       0.000000
     257      15.391486       0.000000
     258      15.391490       0.000000
     259      15.944270       0.000000
     260      15.944273       0.000000
     261      16.649450       0.000000

 288/288 kpoint (Cartesian) = 0.211521 0.122121 -0.026483 (3265 pws)
       1     -73.546750       0.003472
       2     -73.546750       0.003472
       3     -69.208488       0.003472
       4     -69.208487       0.003472
       5     -42.789171       0.003472
       6     -42.789170       0.003472
       7     -42.401603       0.003472
       8     -42.401603       0.003472
       9     -41.893772       0.003472
      10     -41.893772       0.003472
      11     -38.016291       0.003472
      12     -38.016291       0.003472
      13     -37.614435       0.003472
      14     -37.614435       0.003472
      15     -37.270606       0.003472
      16     -37.270606       0.003472
      17     -27.988756       0.003472
      18     -27.988755       0.003472
      19     -27.988751       0.003472
      20     -27.988750       0.003472
      21     -27.986538       0.003472
      22     -27.986537       0.003472
      23     -27.986534       0.003472
      24     -27.986533       0.003472
      25     -27.981178       0.003472
      26     -27.981178       0.003472
      27     -27.981176       0.003472
      28     -27.981175       0.003472
      29     -27.976343       0.003472
      30     -27.976343       0.003472
      31     -27.976341       0.003472
      32     -27.976341       0.003472
      33     -27.654781       0.003472
      34     -27.654778       0.003472
      35     -27.654678       0.003472
      36     -27.654676       0.003472
      37     -27.653391       0.003472
      38     -27.653389       0.003472
      39     -27.653152       0.003472
      40     -27.653149       0.003472
      41     -27.634943       0.003472
      42     -27.634940       0.003472
      43     -27.634253       0.003472
      44     -27.634250       0.003472
      45     -27.633931       0.003472
      46     -27.633928       0.003472
      47     -27.633155       0.003472
      48     -27.633152       0.003472
      49     -26.527708       0.003472
      50     -26.527707       0.003472
      51     -26.527707       0.003472
      52     -26.527706       0.003472
      53     -26.526899       0.003472
      54     -26.526898       0.003472
      55     -26.526898       0.003472
      56     -26.526896       0.003472
      57     -26.525502       0.003472
      58     -26.525501       0.003472
      59     -26.525501       0.003472
      60     -26.525500       0.003472
      61     -26.521428       0.003472
      62     -26.521427       0.003472
      63     -26.521426       0.003472
      64     -26.521426       0.003472
      65     -26.518272       0.003472
      66     -26.518272       0.003472
      67     -26.518270       0.003472
      68     -26.518269       0.003472
      69     -26.510580       0.003472
      70     -26.510580       0.003472
      71     -26.510578       0.003472
      72     -26.510577       0.003472
      73     -26.194515       0.003472
      74     -26.194513       0.003472
      75     -26.193769       0.003472
      76     -26.193766       0.003472
      77     -26.193748       0.003472
      78     -26.193745       0.003472
      79     -26.193095       0.003472
      80     -26.193092       0.003472
      81     -26.190421       0.003472
      82     -26.190418       0.003472
      83     -26.189191       0.003472
      84     -26.189188       0.003472
      85     -26.188258       0.003472
      86     -26.188255       0.003472
      87     -26.186912       0.003472
      88     -26.186909       0.003472
      89     -26.168479       0.003472
      90     -26.168476       0.003472
      91     -26.167971       0.003472
      92     -26.167968       0.003472
      93     -26.166536       0.003472
      94     -26.166533       0.003472
      95     -26.165963       0.003472
      96     -26.165960       0.003472
      97     -15.224203       0.003472
      98     -15.224202       0.003472
      99     -15.224195       0.003472
     100     -15.224195       0.003472
     101     -15.221031       0.003472
     102     -15.221031       0.003472
     103     -15.221029       0.003472
     104     -15.221028       0.003472
     105     -15.214673       0.003472
     106     -15.214673       0.003472
     107     -15.214615       0.003472
     108     -15.214614       0.003472
     109     -15.213467       0.003472
     110     -15.213467       0.003472
     111     -15.213405       0.003472
     112     -15.213405       0.003472
     113     -12.257725       0.003472
     114     -12.257725       0.003472
     115     -12.257713       0.003472
     116     -12.257712       0.003472
     117     -12.253036       0.003472
     118     -12.253035       0.003472
     119     -12.253011       0.003472
     120     -12.253010       0.003472
     121     -12.246519       0.003472
     122     -12.246518       0.003472
     123     -12.246514       0.003472
     124     -12.246514       0.003472
     125     -12.242592       0.003472
     126     -12.242591       0.003472
     127     -12.242588       0.003472
     128     -12.242588       0.003472
     129     -12.235311       0.003472
     130     -12.235310       0.003472
     131     -12.235309       0.003472
     132     -12.235309       0.003472
     133     -12.235025       0.003472
     134     -12.235025       0.003472
     135     -12.235020       0.003472
     136     -12.235019       0.003472
     137      -3.438101       0.003472
     138      -3.438099       0.003472
     139      -3.412953       0.003472
     140      -3.412953       0.003472
     141      -3.277117       0.003472
     142      -3.277117       0.003472
     143      -3.246029       0.003472
     144      -3.246028       0.003472
     145      -1.973171       0.003472
     146      -1.973169       0.003472
     147      -1.885235       0.003472
     148      -1.885233       0.003472
     149      -1.319637       0.003472
     150      -1.319637       0.003472
     151      -1.233374       0.003472
     152      -1.233374       0.003472
     153       0.406475       0.003472
     154       0.406476       0.003472
     155       0.532888       0.003472
     156       0.532889       0.003472
     157       1.035321       0.003472
     158       1.035321       0.003472
     159       1.129367       0.003472
     160       1.129367       0.003472
     161       3.170423       0.003472
     162       3.170425       0.003472
     163       3.191853       0.003472
     164       3.191856       0.003472
     165       3.353954       0.003472
     166       3.353955       0.003472
     167       3.553459       0.003472
     168       3.553460       0.003472
     169       3.563349       0.003472
     170       3.563349       0.003472
     171       5.934135       0.003472
     172       5.934136       0.003472
     173       6.050732       0.003472
     174       6.050733       0.003472
     175       6.681180       0.003472
     176       6.681181       0.003472
     177       6.754720       0.003472
     178       6.754721       0.003472
     179       7.243072       0.003472
     180       7.243074       0.003472
     181       7.284541       0.003472
     182       7.284544       0.003472
     183       7.435347       0.003472
     184       7.435350       0.003472
     185       7.717441       0.003472
     186       7.717442       0.003472
     187       7.794583       0.003472
     188       7.794586       0.003472
     189       7.905644       0.003472
     190       7.905645       0.003472
     191       7.986177       0.003472
     192       7.986179       0.003472
     193       8.128453       0.003472
     194       8.128454       0.003472
     195       8.221720       0.003472
     196       8.221722       0.003472
     197       8.399460       0.003472
     198       8.399461       0.003472
     199       8.523106       0.003472
     200       8.523109       0.003472
     201       8.607813       0.003472
     202       8.607815       0.003472
     203       8.728406       0.003472
     204       8.728408       0.003472
     205       8.827656       0.003472
     206       8.827657       0.003472
     207       8.896921       0.003472
     208       8.896923       0.003472
     209       9.092251       0.003472
     210       9.092251       0.003472
     211       9.164149       0.003472
     212       9.164149       0.003472
     213       9.253780       0.003472
     214       9.253781       0.003472
     215       9.445504       0.003472
     216       9.445505       0.003472
     217       9.561311       0.003472
     218       9.561312       0.003472
     219      10.059784       0.000000
     220      10.059785       0.000000
     221      10.139747       0.000000
     222      10.139748       0.000000
     223      10.349307       0.000000
     224      10.349308       0.000000
     225      10.441801       0.000000
     226      10.441801       0.000000
     227      11.199764       0.000000
     228      11.199765       0.000000
     229      11.347536       0.000000
     230      11.347536       0.000000
     231      11.547105       0.000000
     232      11.547105       0.000000
     233      11.577302       0.000000
     234      11.577302       0.000000
     235      11.700876       0.000000
     236      11.700877       0.000000
     237      11.765651       0.000000
     238      11.765652       0.000000
     239      11.815688       0.000000
     240      11.815689       0.000000
     241      11.903060       0.000000
     242      11.903061       0.000000
     243      11.937653       0.000000
     244      11.937654       0.000000
     245      11.990051       0.000000
     246      11.990052       0.000000
     247      12.086787       0.000000
     248      12.086787       0.000000
     249      12.591862       0.000000
     250      12.591863       0.000000
     251      12.707957       0.000000
     252      12.707957       0.000000
     253      13.987137       0.000000
     254      13.987137       0.000000
     255      15.030823       0.000000
     256      15.030825       0.000000
     257      15.246043       0.000000
     258      15.246045       0.000000
     259      15.738236       0.000000
     260      15.738240       0.000000
     261      16.434386       0.000000

 EFERMI = 9.6989747961328874 eV
 OUT.ABACUS/ final etot is -37652.9048927910043858 eV


 --------------------------------------------
 !FINAL_ETOT_IS -37652.9048927910043858 eV
 --------------------------------------------






  |CLASS_NAME---------|NAME---------------|TIME(Sec)-----|CALLS----|AVG------|PER%-------
                                      total     4300.58255        11    390.96    100.00%
               Run_lcao           lcao_line     4300.57394         1   4300.57    100.00%
               PW_Basis              gen_pw        0.30863         1      0.31      0.01%
          PW_complement      setup_GVectors        0.14394        10      0.01      0.00%
                 mymath            heapsort        0.10575        10      0.01      0.00%
            ORB_control      read_orb_first        0.27300         1      0.27      0.01%
          LCAO_Orbitals       Read_Orbitals        0.27299         1      0.27      0.01%
                 Sphbes    Spherical_Bessel        0.39647    153000      0.00      0.01%
            ORB_control      set_orb_tables       69.73807         1     69.74      1.62%
         ORB_gen_tables          gen_tables       69.73806         1     69.74      1.62%
          ORB_table_phi          init_Table       39.92539         1     39.93      0.93%
          ORB_table_phi      cal_ST_Phi12_R       39.68605      1672      0.02      0.92%
         ORB_table_beta     init_Table_Beta       29.41791         1     29.42      0.68%
         ORB_table_beta       VNL_PhiBeta_R       29.29229      1936      0.02      0.68%
              ppcell_vl           init_vloc        0.49954         1      0.50      0.01%
              Potential            init_pot        2.88827         1      2.89      0.07%
                    FFT               FFT3D        7.26589      2018      0.00      0.17%
                 Charge        set_rho_core        0.60516         1      0.61      0.01%
                 Charge          atomic_rho        2.05214         1      2.05      0.05%
              Potential            v_of_rho        8.03517        40      0.20      0.19%
          XC_Functional                v_xc        7.40353        40      0.19      0.17%
           H_Hartree_pw           v_hartree        0.41891        40      0.01      0.01%
              LOOP_ions            opt_ions     4226.61513         1   4226.62     98.28%
              LOOP_elec     solve_elec_stru     4226.36763         1   4226.37     98.27%
              LOOP_elec     set_matrix_grid        0.41489         1      0.41      0.01%
         Grid_Technique                init        0.39875         1      0.40      0.01%
           Grid_BigCellgrid_expansion_index        0.19173         2      0.10      0.00%
            Grid_Driver           Find_atom        6.22081    382468      0.00      0.14%
              LOOP_elec       before_solver       19.08466         1     19.08      0.44%
            LCAO_Hamilt   set_lcao_matrices       18.49674         1     18.50      0.43%
        LCAO_gen_fixedH      calculate_S_no        0.12249         1      0.12      0.00%
        LCAO_gen_fixedH   build_Nonlocal_mu       18.24830         1     18.25      0.42%
         ORB_gen_tables        snap_psibeta       17.27463   1078848      0.00      0.40%
              LOOP_elec              solver     4206.86808         1   4206.87     97.82%
               ELEC_scf                 scf     4206.86807         1   4206.87     97.82%
          ELEC_cbands_k           cal_bands     1653.72666        39     42.40     38.45%
                 Gint_k              vlocal      588.25366       156      3.77     13.68%
             Efficience              each_k     1056.75143     11232      0.09     24.57%
             Efficience                 H_k      407.23326     11232      0.04      9.47%
            LCAO_Hamilt        calculate_Hk      349.06270     11232      0.03      8.12%
                 Gint_k     folding_vl_k_nc      270.89887     11232      0.02      6.30%
                 Gint_k              Distri      189.55626     11232      0.02      4.41%
               LCAO_nnr      folding_fixedH       73.82462     11232      0.01      1.72%
                   DFTU     cal_eff_pot_mat       57.19812     11232      0.01      1.33%
             Efficience             diago_k      649.50471     11232      0.06     15.10%
      Diago_LCAO_Matrix          elpa_solve      600.56849     11232      0.05     13.96%
      Local_Orbital_wfc      wfc_2d_to_grid       45.96596     11232      0.00      1.07%
      Local_Orbital_Cha           sum_bands     2252.59944        39     57.76     52.38%
            LCAO_Charge            cal_dk_k     1496.93977        39     38.38     34.81%
                 Gint_k           cal_rho_k      344.46125        39      8.83      8.01%
                   DFTU       cal_occup_m_k      148.23735        39      3.80      3.45%
                   DFTUfolding_overlap_matrix       80.24606     11232      0.01      1.87%
                 Charge             mix_rho        7.12128        39      0.18      0.17%
 ----------------------------------------------------------------------------------------

 CLASS_NAME---------|NAME---------------|MEMORY(MB)--------
                                         320837.4830
        ORB_table_phi               Jl(x)       225.4117
        ORB_table_phi         Table_SR&TR        22.0276
        Grid_Meshcell        index2normal        17.9410
        Grid_Meshcell         index2ucell        17.9410
       ORB_table_beta            Table_NR        17.4756
         Charge_Pulay                Rrho        16.0000
         Charge_Pulay               dRrho        14.0000
         Charge_Pulay                drho        14.0000
        init_meshball        meshball_pos         7.9095
  LocalOrbital_Charge      Density_Matrix         7.6012
        allocate_pvpR        pvpR_reduced         7.6012
               WF_igk                 igk         3.6870
    LocalOrbital_Coef          wfc_k_grid         2.1506
               Charge                 rho         2.0000
               Charge            rho_save         2.0000
            Potential                  vr         2.0000
            Potential              vr_eff         2.0000
            Potential                vnew         2.0000
         Charge_Pulay           rho_save2         2.0000
             PW_Basis           struc_fac         1.6189
              Use_FFT              porter         1.0000
 ----------------------------------------------------------

 Start  Time  : Thu Apr  7 15:13:39 2022
 Finish Time  : Thu Apr  7 16:25:19 2022
 Total  Time  : 1 h 11 mins 40 secs 
