/home0/crystal/CRYSTAL14/public/svn928_240216_pub1_0_4/bin/Linux-ifort_XE_openmpi_emt64/v1.0.4//Pcrystal
/data/civalleri/142691
script started on node4
TEST04 - CORUNDUM 111 (0001) 2 LAYERS- 2D 
SLAB
66
4.552841
3
13  0.33333333  0.66666667  0.27110
13  0.        0.        1.814293
8   0.66666667  0.63633333  1.042697
SYMMOPS
END
13 4
1   0   3   2.   0.
1   1   3   8.   0.
1   1   3   3.   0.
0   3   1   0.   1.
0.6    1.
8  2
1   0   3   2.   0.
1   1   3   6.   0.
99  0
END
DFT
B3LYP
END
LEVSHIFT
6 1
SHRINK
6  6  
TOLDEE
7 
MAXCYCLE
99
NODIRECT
END
Tue Aug  2 18:07:06 CEST 2016
           8 PROCESSORS WORKING

         
 *******************************************************************************
 *                                                                             *
 *                               CRYSTAL14                                     *
 *                      public : 1.0.4 - Feb 23rd, 2016                        *
 *                       HTTP://WWW.CRYSTAL.UNITO.IT                           *
 *                                                                             *
 *                              MAIN AUTHORS                                   *
 *                                                                             *
 *  R. DOVESI(1,11), V.R. SAUNDERS(2), C. ROETTI(1,11), R. ORLANDO(1,11),      *
 *  C.M. ZICOVICH-WILSON(1,3), F. PASCALE(4), B. CIVALLERI(1,11),              *
 *  K. DOLL(5), N.M. HARRISON(2,6), I. J. BUSH(7), Ph. D'ARCO(8),              *
 *  M. LLUNELL(9), M. CAUSA'(10), Y. NOEL(8)                                   *
 *                                                                             *
 *        CONTRIBUTIONS TO THE CURRENT RELEASE HAVE BEEN GIVEN BY              *
 *                                                                             *
 *  L. MASCHIO(1,11), S. CASASSA(1,11), A. ERBA(1,11), M. FERRABONE(1,11),     *
 *  M. DE LA PIERRE(1,11), M. FERRERO(1,11), V. LACIVITA(1,11),                *
 *  J. BAIMA(1,11), E. ALBANESE(1,11), M.F. PEINTINGER(12), R. BAST(13),       *
 *  M. RERAT(14), B. KIRTMAN(15), R. DEMICHELIS(1,16)                          *
 *                                                                             *
 * (1) THEORETICAL CHEMISTRY GROUP - UNIVERSITA' DI TORINO - TORINO (ITALY)    *
 *     http://www.crystal.unito.it                                             *
 * (2) COMPUTATIONAL SCIENCE & ENGINEERING DEPARTMENT - STFC DARESBURY (UK)    *
 *     http://www.stfc.ac.uk/CSE/randd/cmg/CRYSTAL/25806.aspx                  *
 * (3) UNIVERSIDAD AUTONOMA DEL ESTADO DE MORELOS - CUERNAVACA (MEXICO)        *
 * (4) UNIVERSITE' DE LORRAINE - NANCY (FRANCE)                                *
 * (5) UNIVERSITAET ULM - ULM (GERMANY); (6) IMPERIAL COLLEGE - LONDON (UK)    *
 * (7) NAG - OXFORD (UK); (8) UPMC - SORBONNE UNIVERSITES - PARIS (FRANCE)     *
 * (9) UNIVERSIDAD DE BARCELONA - BARCELONA (SPAIN)                            *
 *(10) UNIVERSITA' DI NAPOLI "FEDERICO II" - NAPOLI (ITALY)                    *
 *(11) NIS - NANOSTRUCTURED INTERFACES AND SURFACES - TORINO (ITALY)           *
 *(12) MPI FUER CHEMISCHE ENERGIEKONVERSION - MUELHEIM AN DER RUHR (GERMANY)   *
 *(13) UNIVERSITY OF STOCKHOLM - STOCKHOLM (SWEDEN)                            *
 *(14) UNIVERSITE' DE PAU ET DES PAYS DE L'ADOUR - PAU (FRANCE)                *
 *(15) UNIVERSITY OF CALIFORNIA SANTA BARBARA - SANTA BARBARA (USA)            *
 *(16) CURTIN UNIVERSITY - PERTH (AUSTRALIA)                                   *
 *                                                                             *
 ********************************************************************************
 EEEEEEEEEE STARTING  DATE 02 08 2016 TIME 18:07:07.7
 TEST04 - CORUNDUM 111 (0001) 2 LAYERS- 2D                                       

 SLAB CALCULATION
 SYSTEM AND LATTICE                   :  HEXAGONAL   
 TWO-SIDED PLANE GROUP N. 66          :  P -3            
 CORRESPONDING SPACE GROUP N. 147

 LATTICE PARAMETERS  (ANGSTROMS AND DEGREES) - CONVENTIONAL CELL
           A              B            GAMMA
        4.55284        4.55284      120.00000


 NUMBER OF IRREDUCIBLE ATOMS IN THE CONVENTIONAL CELL:    3

 INPUT COORDINATES

 ATOM AT. N.              COORDINATES
   1  13     3.333333300000E-01  6.666666700000E-01  2.711000000000E-01
   2  13     0.000000000000E+00  0.000000000000E+00  1.814293000000E+00
   3   8     6.666666700000E-01  6.363333300000E-01  1.042697000000E+00

 *******************************************************************************

 << INFORMATION >>: FROM NOW ON, ALL COORDINATES REFER TO THE PRIMITIVE CELL

 *******************************************************************************

 LATTICE PARAMETERS  (ANGSTROMS AND DEGREES) - PRIMITIVE CELL
       A          B          C        ALPHA      BETA     GAMMA        VOLUME
    4.55284    4.55284  500.00000    90.00000  90.00000 120.00000     17.951287

 COORDINATES OF THE EQUIVALENT ATOMS 
 (X AND Y IN FRACTIONARY UNITS, Z IN ANGSTROMS)

 N. ATOM EQUIV AT. N.          X                  Y                  Z

   1   1   1   13 AL    3.33333330000E-01 -3.33333330000E-01  2.71100000000E-01
   2   1   2   13 AL   -3.33333330000E-01  3.33333330000E-01 -2.71100000000E-01

   3   2   1   13 AL    0.00000000000E+00  0.00000000000E+00  1.81429300000E+00
   4   2   2   13 AL    0.00000000000E+00  0.00000000000E+00 -1.81429300000E+00

   5   3   1    8 O    -3.33333330000E-01 -3.63666670000E-01  1.04269700000E+00
   6   3   2    8 O     3.63666670000E-01  3.03333400000E-02  1.04269700000E+00
   7   3   3    8 O    -3.03333400000E-02  3.33333330000E-01  1.04269700000E+00
   8   3   4    8 O     3.33333330000E-01  3.63666670000E-01 -1.04269700000E+00
   9   3   5    8 O    -3.63666670000E-01 -3.03333400000E-02 -1.04269700000E+00
  10   3   6    8 O     3.03333400000E-02 -3.33333330000E-01 -1.04269700000E+00

 NUMBER OF SYMMETRY OPERATORS         :    6
 *******************************************************************************
 * GEOMETRY EDITING - INPUT COORDINATES ARE GIVEN IN ANGSTROM         
 *******************************************************************************

 GEOMETRY NOW FULLY CONSISTENT WITH THE GROUP

 *****    6 SYMMOPS - TRANSLATORS IN ANGSTROM
 ***** MATRICES AND TRANSLATORS IN THE CARTESIAN REFERENCE FRAME

 ORDER   : ORDER OF THE OPERATOR

 TRANSLA : REAL TRANSLATION (WITHOUT ORIGIN SHIFT) IN CARTESIAN COORDINATES

 uvw/hkl : ORIENTATION OF THE OPERATOR IN CARTESIAN COORDINATES

 LOCATED : ORIGIN OF THE OPERATOR IN CARTESIAN COORDINATES

   NO.   1 INVERSE   1    ORDER   1        NO.   2 INVERSE   3    ORDER   3
    1.000   0.000   0.000     0.000        -0.500  -0.866   0.000     0.000
    0.000   1.000   0.000     0.000         0.866  -0.500   0.000     0.000
    0.000   0.000   1.000     0.000         0.000   0.000   1.000     0.000
             OPERATION E(   1)                       OPERATION C(   3)
 DETERMINANT 1.; ROTATION(DEG)   0.      DETERMINANT 1.; ROTATION(DEG) 120.
 TRANSLA (  0.000    0.000    0.000)     TRANSLA (  0.000    0.000    0.000)
 uvw/hkl (  0.000    0.000    0.000)     uvw/hkl (  0.000    0.000    3.000)
 LOCATED (  0.000    0.000    0.000)     LOCATED (  0.000    0.000    0.000)

   NO.   3 INVERSE   2    ORDER   3        NO.   4 INVERSE   4    ORDER   2
   -0.500   0.866   0.000     0.000        -1.000   0.000   0.000     0.000
   -0.866  -0.500   0.000     0.000         0.000  -1.000   0.000     0.000
    0.000   0.000   1.000     0.000         0.000   0.000  -1.000     0.000
             OPERATION C(   3)                       OPERATION I(   2)
 DETERMINANT 1.; ROTATION(DEG) 120.      DETERMINANT-1.; ROTATION(DEG) 180.
 TRANSLA (  0.000    0.000    0.000)     TRANSLA (  0.000    0.000    0.000)
 uvw/hkl (  0.000    0.000    3.000)     uvw/hkl (  0.000    0.000    0.000)
 LOCATED (  0.000    0.000    0.000)     LOCATED (  0.000    0.000    0.000)

   NO.   5 INVERSE   6    ORDER   6        NO.   6 INVERSE   5    ORDER   6
    0.500   0.866   0.000     0.000         0.500  -0.866   0.000     0.000
   -0.866   0.500   0.000     0.000         0.866   0.500   0.000     0.000
    0.000   0.000  -1.000     0.000         0.000   0.000  -1.000     0.000
             OPERATION S(   6)                       OPERATION S(   6)
 DETERMINANT-1.; ROTATION(DEG)  60.      DETERMINANT-1.; ROTATION(DEG)  60.
 TRANSLA (  0.000    0.000    0.000)     TRANSLA (  0.000    0.000    0.000)
 uvw/hkl (  0.000    0.000    1.000)     uvw/hkl (  0.000    0.000    1.000)
 LOCATED (  0.000    0.000    0.000)     LOCATED (  0.000    0.000    0.000)

 GCALCO - MAX INDICES DIRECT LATTICE VECTOR    83    83     0
 NO.OF VECTORS CREATED 6999 STARS  503 RMAX   378.26598 BOHR

 GEOMETRY FOR WAVE FUNCTION - DIMENSIONALITY OF THE SYSTEM    2
 (NON PERIODIC DIRECTION: LATTICE PARAMETER FORMALLY SET TO 500)
 *******************************************************************************
 LATTICE PARAMETERS (ANGSTROMS AND DEGREES) - BOHR = 0.5291772083 ANGSTROM
 PRIMITIVE CELL
         A              B              C           ALPHA      BETA       GAMMA 
     4.55284100     4.55284100   500.00000000    90.000000  90.000000 120.000000
 *******************************************************************************
 ATOMS IN THE ASYMMETRIC UNIT    3 - ATOMS IN THE UNIT CELL:   10
     ATOM              X/A                 Y/B             Z(ANGSTROM)
 *******************************************************************************
   1 T  13 AL    3.333333333333E-01 -3.333333333333E-01  2.711000000000E-01
   2 F  13 AL   -3.333333333333E-01  3.333333333333E-01 -2.711000000000E-01
   3 T  13 AL    0.000000000000E+00  0.000000000000E+00  1.814293000000E+00
   4 F  13 AL    0.000000000000E+00  0.000000000000E+00 -1.814293000000E+00
   5 T   8 O    -3.333333300000E-01 -3.636666700000E-01  1.042697000000E+00
   6 F   8 O     3.636666700000E-01  3.033334000000E-02  1.042697000000E+00
   7 F   8 O    -3.033334000000E-02  3.333333300000E-01  1.042697000000E+00
   8 F   8 O     3.333333300000E-01  3.636666700000E-01 -1.042697000000E+00
   9 F   8 O    -3.636666700000E-01 -3.033334000000E-02 -1.042697000000E+00
  10 F   8 O     3.033334000000E-02 -3.333333300000E-01 -1.042697000000E+00

 T = ATOM BELONGING TO THE ASYMMETRIC UNIT

 ****    6 SYMMOPS - TRANSLATORS IN FRACTIONAL UNITS
 **** MATRICES AND TRANSLATORS IN THE CRYSTALLOGRAPHIC REFERENCE FRAME
   V INV                    ROTATION MATRICES                   TRANSLATORS
   1   1  1.00  0.00  0.00  0.00  1.00  0.00  0.00  0.00  1.00  0.00  0.00  0.00
   2   3  0.00 -1.00  0.00  1.00 -1.00  0.00  0.00  0.00  1.00  0.00  0.00  0.00
   3   2 -1.00  1.00  0.00 -1.00  0.00  0.00  0.00  0.00  1.00  0.00  0.00  0.00
   4   4 -1.00  0.00  0.00  0.00 -1.00  0.00  0.00  0.00 -1.00  0.00  0.00  0.00
   5   6 -0.00  1.00  0.00 -1.00  1.00  0.00  0.00  0.00 -1.00  0.00  0.00  0.00
   6   5  1.00 -1.00  0.00  1.00  0.00  0.00  0.00  0.00 -1.00  0.00  0.00  0.00

 DIRECT LATTICE VECTORS CARTESIAN COMPONENTS (ANGSTROM)
          X                    Y                    Z
   0.394287596539E+01  -0.227642050000E+01   0.000000000000E+00
   0.000000000000E+00   0.455284100000E+01   0.000000000000E+00
   0.000000000000E+00   0.000000000000E+00   0.500000000000E+03


 CARTESIAN COORDINATES - PRIMITIVE CELL
 *******************************************************************************
 *      ATOM          X(ANGSTROM)         Y(ANGSTROM)         Z(ANGSTROM)
 *******************************************************************************
    1    13 AL   -2.628583976928E+00 -2.350018883046E-16  2.711000000000E-01
    2    13 AL   -1.314291988464E+00 -2.276420500000E+00 -2.711000000000E-01
    3    13 AL    0.000000000000E+00  0.000000000000E+00  1.814293000000E+00
    4    13 AL    0.000000000000E+00  0.000000000000E+00 -1.814293000000E+00
    5     8 O    -1.314291975321E+00 -8.969096997642E-01  1.042697000000E+00
    6     8 O     1.433892572557E+00 -6.897553887358E-01  1.042697000000E+00
    7     8 O    -1.196005972360E-01  1.586665088500E+00  1.042697000000E+00
    8     8 O     1.314291975321E+00  8.969096997642E-01 -1.042697000000E+00
    9     8 O    -1.433892572557E+00  6.897553887358E-01 -1.042697000000E+00
   10     8 O     1.196005972360E-01 -1.586665088500E+00 -1.042697000000E+00

 *******************************************************************************
 LOCAL ATOMIC FUNCTIONS BASIS SET
 *******************************************************************************
   ATOM   X(AU)   Y(AU)   Z(AU)  N. TYPE  EXPONENT  S COEF   P COEF   D/F/G COEF
 *******************************************************************************
   1 AL  -4.967  -0.000   0.512
                                  1 S  
                                         3.514E+02 1.543E-01 0.000E+00 0.000E+00
                                         6.401E+01 5.353E-01 0.000E+00 0.000E+00
                                         1.732E+01 4.446E-01 0.000E+00 0.000E+00
                             2-   5 SP 
                                         1.890E+01-9.997E-02 1.559E-01 0.000E+00
                                         4.392E+00 3.995E-01 6.077E-01 0.000E+00
                                         1.428E+00 7.001E-01 3.920E-01 0.000E+00
                             6-   9 SP 
                                         1.395E+00-2.196E-01 1.059E-02 0.000E+00
                                         3.893E-01 2.256E-01 5.952E-01 0.000E+00
                                         1.524E-01 9.004E-01 4.620E-01 0.000E+00
                            10-  14 D  
                                         6.000E-01 0.000E+00 0.000E+00 1.000E+00
   2 AL  -2.484  -4.302  -0.512
   3 AL   0.000   0.000   3.429
   4 AL   0.000   0.000  -3.429
   5 O   -2.484  -1.695   1.970
                                 57 S  
                                         1.307E+02 1.543E-01 0.000E+00 0.000E+00
                                         2.381E+01 5.353E-01 0.000E+00 0.000E+00
                                         6.444E+00 4.446E-01 0.000E+00 0.000E+00
                            58-  61 SP 
                                         5.033E+00-9.997E-02 1.559E-01 0.000E+00
                                         1.170E+00 3.995E-01 6.077E-01 0.000E+00
                                         3.804E-01 7.001E-01 3.920E-01 0.000E+00
   6 O    2.710  -1.303   1.970
   7 O   -0.226   2.998   1.970
   8 O    2.484   1.695  -1.970
   9 O   -2.710   1.303  -1.970
  10 O    0.226  -2.998  -1.970
 INFORMATION **** SET_MPP **** PCRYSTAL CALCULATION
 INFORMATION **** READM2 **** NEW DEFAULT: FOCK/KS MATRIX MIXING SET TO 30 %
 INFORMATION **** READM2 **** NEW DEFAULT: FULL DIRECT SCF MODE
 INFORMATION **** READM2 **** NEW DEFAULT: COULOMB BIPOLAR BUFFER SET TO 32 Mb
 INFORMATION **** READM2 **** NEW DEFAULT: EXCHANGE BIPOLAR BUFFER SET TO 32 Mb

 *******************************************************************************
 NEW DEFAULT: DFT INTEGRATION GRID INCREASED TO XLGRID
 NEW DEFAULT: LEVEL SHIFTER 6 0
 IF THE SYSTEM IS A METAL USE KEYWORD NOSHIFT
 *******************************************************************************

 INFORMATION **** LEVSHIFT **** LEVEL SHIFTER ACTIVE
 INFORMATION **** TOLDEE **** SCF TOL ON TOTAL ENERGY SET TO           7
 INFORMATION **** MAXCYCLE **** MAX NUMBER OF SCF CYCLES SET TO          99
 INFORMATION **** READM2 **** MONO- AND BI-ELECTRON INTEGRALS WRITTEN ON DISK (NO DIRECT SCF)
 *******************************************************************************
 N. OF ATOMS PER CELL        10  COULOMB OVERLAP TOL         (T1) 10**   -6
 NUMBER OF SHELLS            28  COULOMB PENETRATION TOL     (T2) 10**   -6
 NUMBER OF AO                86  EXCHANGE OVERLAP TOL        (T3) 10**   -6
 N. OF ELECTRONS PER CELL   100  EXCHANGE PSEUDO OVP (F(G))  (T4) 10**   -6
 CORE ELECTRONS PER CELL     52  EXCHANGE PSEUDO OVP (P(G))  (T5) 10**  -12
 N. OF SYMMETRY OPERATORS     6  POLE ORDER IN MONO ZONE                  4
 *******************************************************************************
 TYPE OF CALCULATION :  RESTRICTED CLOSED SHELL
 KOHN-SHAM HAMILTONIAN

 (EXCHANGE)[CORRELATION] FUNCTIONAL:(BECKE 88)[LEE-YANG-PARR]

 NON-LOCAL WEIGHTING FACTOR (EXCHANGE) =           0.9000
 NON-LOCAL WEIGHTING FACTOR [CORRELATION] =        0.8100

 HYBRID EXCHANGE - PERCENTAGE OF FOCK EXCHANGE    20.0000
 EIGENVALUE LEVEL SHIFTING OF  0.600 HARTREE
 LOCKING - FERMI ENERGY ALTERED BY LEVEL SHIFTER

 CAPPA:IS1  6;IS2  6;IS3  1; K PTS MONK NET   8; SYMMOPS:K SPACE   6;G SPACE   6

 *******************************************************************************
 MAX NUMBER OF SCF CYCLES      99  CONVERGENCE ON DELTAP        10**-17
 WEIGHT OF F(I) IN F(I+1)      30% CONVERGENCE ON ENERGY        10**- 7
 EIGENVALUE LEVEL SHIFTING OF  0.600 HARTREE
 LOCKING - FERMI ENERGY ALTERED BY LEVEL SHIFTER
 SHRINK. FACT.(MONKH.)    6  6  1  NUMBER OF K POINTS IN THE IBZ      8
 SHRINKING FACTOR(GILAT NET)    6  NUMBER OF K POINTS(GILAT NET)      8
 *******************************************************************************
 *** K POINTS COORDINATES (OBLIQUE COORDINATES IN UNITS OF IS =  6)
   1-R(  0  0  0)   2-C(  1  0  0)   3-C(  2  0  0)   4-R(  3  0  0)
   5-C(  1  1  0)   6-C(  2  1  0)   7-C(  3  1  0)   8-C(  2  2  0)

 DIRECT LATTICE VECTORS COMPON. (A.U.)     RECIP. LATTICE VECTORS COMPON. (A.U.) 
        X            Y            Z              X            Y            Z
    7.4509558   -4.3018113    0.0000000      0.8432724    0.0000000    0.0000000
    0.0000000    8.6036226    0.0000000      0.4216362    0.7302953    0.0000000
    0.0000000    0.0000000  944.8630670      0.0000000    0.0000000    0.0066498

 DISK SPACE FOR EIGENVECTORS (FTN 10)      103544 REALS

 SYMMETRY ADAPTION OF THE BLOCH FUNCTIONS ENABLED
 TTTTTTTTTTTTTTTTTTTTTTTTTTTTTT gordsh1     TELAPSE        1.03 TCPU        0.02

 MATRIX SIZE: P(G)   46670, F(G)   10071, P(G) IRR    4527, F(G) IRR    2017
 MAX G-VECTOR INDEX FOR 1- AND 2-ELECTRON INTEGRALS  31

 INFORMATION **** GENBUF **** COULOMB BIPO BUFFER LENGTH (WORDS) =      253675
 TTTTTTTTTTTTTTTTTTTTTTTTTTTTTT INPUT       TELAPSE        1.03 TCPU        0.02

 NEIGHBORS OF THE NON-EQUIVALENT ATOMS

 N = NUMBER OF NEIGHBORS AT DISTANCE R
    ATOM  N     R/ANG      R/AU   NEIGHBORS (ATOM LABELS AND CELL INDICES)
   1 AL   3     1.7684     3.3418    5 O    0 0 0    6 O   -1 0 0    7 O   -1-1 0
   1 AL   3     1.9050     3.6000    8 O   -1-1 0    9 O    0 0 0   10 O   -1 0 0
   1 AL   3     2.6839     5.0719    2 AL   0 0 0    2 AL  -1 0 0    2 AL   0 1 0
   1 AL   3     3.0481     5.7601    3 AL   0 0 0    3 AL  -1-1 0    3 AL  -1 0 0
   1 AL   3     3.0672     5.7962    5 O   -1 0 0    6 O   -1-1 0    7 O    0 0 0
   1 AL   3     3.3553     6.3407    4 AL  -1-1 0    4 AL   0 0 0    4 AL  -1 0 0

   3 AL   3     1.7684     3.3418    5 O    0 0 0    6 O    0 0 0    7 O    0 0 0
   3 AL   3     3.0481     5.7601    1 AL   0 0 0    1 AL   1 1 0    1 AL   1 0 0
   3 AL   3     3.0672     5.7962    5 O    1 1 0    6 O   -1 0 0    7 O    0-1 0
   3 AL   3     3.2702     6.1798    8 O    0 0 0    9 O    0 0 0   10 O    0 0 0
   3 AL   3     3.3553     6.3407    2 AL   0 0 0    2 AL   1 1 0    2 AL   0 1 0
   3 AL   1     3.6286     6.8570    4 AL   0 0 0

   5 O    1     1.7684     3.3418    3 AL   0 0 0
   5 O    1     1.7684     3.3418    1 AL   0 0 0
   5 O    1     1.9050     3.6000    2 AL   0 0 0
   5 O    2     2.3894     4.5153    6 O   -1-1 0    7 O    0-1 0
   5 O    1     2.5118     4.7466    8 O   -1-1 0
   5 O    2     2.6231     4.9569    9 O    0 0 0   10 O    0 0 0


 SYMMETRY ALLOWED INTERNAL DEGREE(S) OF FREEDOM:   5
 TTTTTTTTTTTTTTTTTTTTTTTTTTTTTT SYMM        TELAPSE        1.03 TCPU        0.02
 TTTTTTTTTTTTTTTTTTTTTTTTTTTTTT INT_SCREEN  TELAPSE        1.03 TCPU        0.02
 INFORMATION **** GENBUF **** COULOMB BIPO BUFFER LENGTH (WORDS) =      253675
 INFORMATION **** EXCBUF **** EXCH. BIPO BUFFER: WORDS USED =      188208
 TTTTTTTTTTTTTTTTTTTTTTTTTTTTTT MONIRR      TELAPSE        1.06 TCPU        0.04

 DFT PARAMETERS

     ATOM       ELECTRONS   NET CHARGE   R(ANGSTROM)
   1  13  AL     13.0000      0.0000     1.43000000
   5   8  O       8.0000      0.0000     0.74000000

 SIZE OF GRID=      43641
 TTTTTTTTTTTTTTTTTTTTTTTTTTTTTT MAKE_GRID2  TELAPSE        2.86 TCPU        1.85
 BECKE WEIGHT FUNCTION
 RADSAFE =     2.00
 TOLERANCES - DENSITY:10**- 6; POTENTIAL:10**- 9; GRID WGT:10**-14

 RADIAL INTEGRATION  - INTERVALS (POINTS,UPPER LIMIT):            1( 75,  4.0*R)

 ANGULAR INTEGRATION - INTERVALS (ACCURACY LEVEL [N. POINTS] UPPER LIMIT):
  1(  4[  86]   0.2)  2(  8[ 194]   0.5)  3( 12[ 350]   0.9)  4( 16[ 974]   3.5)
  5( 12[ 350]9999.0)

  GAUSS70 FOR COULOMB   GAUSS70 FOR EXCHANGE
 **SHELL_ORTHODOX** SPACE FOR BIEL. INTEGRALS     1 BUFFERS
 TTTTTTTTTTTTTTTTTTTTTTTTTTTTTT SHLC        TELAPSE        3.35 TCPU        2.33
 TTTTTTTTTTTTTTTTTTTTTTTTTTTTTT MONMAD      TELAPSE        3.84 TCPU        2.82
 TTTTTTTTTTTTTTTTTTTTTTTTTTTTTT INT_CALC    TELAPSE        3.84 TCPU        2.82
 EEEEEEEEEE INT_CALC TERMINATION  DATE 02 08 2016 TIME 18:07:10.5

 *******************************************************************************
 TEST04 - CORUNDUM 111 (0001) 2 LAYERS- 2D                                       
 CRYSTAL - SCF - TYPE OF CALCULATION :  RESTRICTED CLOSED SHELL
 *******************************************************************************

 CAPPA:IS1  6;IS2  6;IS3  1; K PTS MONK NET   8; SYMMOPS:K SPACE   6;G SPACE   6

 TTTTTTTTTTTTTTTTTTTTTTTTTTTTTT SDIK        TELAPSE        3.85 TCPU        2.84

 AAAAAAAAAAAAAAAAAAAAAAAAAAAAAAAAAAAAAAAAAAAAAAAAAAAAAAAAAAAAAAAAAAAAAAAAAAAAAAA
         ATOMIC WAVEFUNCTION(S)


 NUCLEAR CHARGE 13.0  SYMMETRY SPECIES            S    P
 N. ELECTRONS   13.0  NUMBER OF PRIMITIVE GTOS    9    6
                      NUMBER OF CONTRACTED GTOS   3    2
                      NUMBER OF CLOSED SHELLS     3    1
                      OPEN SHELL OCCUPATION       0    1

  ZNUC SCFIT  TOTAL HF ENERGY   KINETIC ENERGY   VIRIAL THEOREM ACCURACY
  13.0   3   -2.388583408E+02  2.366235615E+02 -2.009444450E+00  1.7E-06

 NUCLEAR CHARGE  8.0  SYMMETRY SPECIES            S    P
 N. ELECTRONS    8.0  NUMBER OF PRIMITIVE GTOS    6    3
                      NUMBER OF CONTRACTED GTOS   2    1
                      NUMBER OF CLOSED SHELLS     2    0
                      OPEN SHELL OCCUPATION       0    4

  ZNUC SCFIT  TOTAL HF ENERGY   KINETIC ENERGY   VIRIAL THEOREM ACCURACY
   8.0   1   -7.380415026E+01  7.344496710E+01 -2.004890507E+00  0.0E+00

 AAAAAAAAAAAAAAAAAAAAAAAAAAAAAAAAAAAAAAAAAAAAAAAAAAAAAAAAAAAAAAAAAAAAAAAAAAAAAAA

 CHARGE NORMALIZATION FACTOR   1.00000000
 TOTAL ATOMIC CHARGES:
  13.0000000  13.0000000  13.0000000  13.0000000   8.0000000   8.0000000
   8.0000000   8.0000000   8.0000000   8.0000000
 TTTTTTTTTTTTTTTTTTTTTTTTTTTTTT QGAM        TELAPSE        3.86 TCPU        2.84
 TTTTTTTTTTTTTTTTTTTTTTTTTTTTTT BIEL2       TELAPSE        3.88 TCPU        2.86
 TTTTTTTTTTTTTTTTTTTTTTTTTTTTTT TOTENY      TELAPSE        3.89 TCPU        2.88
 NUMERICALLY INTEGRATED DENSITY    100.0000146499
 TTTTTTTTTTTTTTTTTTTTTTTTTTTTTT NUMDFT      TELAPSE        4.22 TCPU        3.20
 CYC   0 ETOT(AU) -1.402688171522E+03 DETOT -1.40E+03 tst  0.00E+00 PX  1.00E+00
 TTTTTTTTTTTTTTTTTTTTTTTTTTTTTT FDIK        TELAPSE        4.24 TCPU        3.22
 INSULATING STATE - LEVEL SHIFTER    0.60 au
 TOP OF VALENCE BANDS -    BAND     50; K    1; EIG -1.4322276E-01 AU
 BOTTOM OF VIRTUAL BANDS - BAND     51; K    1; EIG  6.0468736E-02 AU
 TTTTTTTTTTTTTTTTTTTTTTTTTTTTTT PDIG        TELAPSE        4.25 TCPU        3.22
 CHARGE NORMALIZATION FACTOR   1.00000000
 TOTAL ATOMIC CHARGES:
  11.7542628  11.7542628  11.3239686  11.3239686   8.9739229   8.9739229
   8.9739229   8.9739229   8.9739229   8.9739229
 TTTTTTTTTTTTTTTTTTTTTTTTTTTTTT QGAM        TELAPSE        4.25 TCPU        3.23
 TTTTTTTTTTTTTTTTTTTTTTTTTTTTTT BIEL2       TELAPSE        4.28 TCPU        3.26
 TTTTTTTTTTTTTTTTTTTTTTTTTTTTTT TOTENY      TELAPSE        4.29 TCPU        3.27
 NUMERICALLY INTEGRATED DENSITY    100.0000150638
 TTTTTTTTTTTTTTTTTTTTTTTTTTTTTT NUMDFT      TELAPSE        4.86 TCPU        3.84
 CYC   1 ETOT(AU) -1.403332666322E+03 DETOT -6.44E-01 tst  0.00E+00 PX  1.00E+00
 TTTTTTTTTTTTTTTTTTTTTTTTTTTTTT FDIK        TELAPSE        4.87 TCPU        3.85
 INSULATING STATE - LEVEL SHIFTER    0.60 au
 TOP OF VALENCE BANDS -    BAND     50; K    1; EIG -3.5188046E-01 AU
 BOTTOM OF VIRTUAL BANDS - BAND     51; K    1; EIG  1.3965143E-01 AU
 TTTTTTTTTTTTTTTTTTTTTTTTTTTTTT PDIG        TELAPSE        4.88 TCPU        3.86
 CHARGE NORMALIZATION FACTOR   1.00000000
 TOTAL ATOMIC CHARGES:
  12.1363853  12.1363853  12.0287881  12.0287881   8.6116089   8.6116089
   8.6116089   8.6116089   8.6116089   8.6116089
 TTTTTTTTTTTTTTTTTTTTTTTTTTTTTT QGAM        TELAPSE        4.88 TCPU        3.86
 TTTTTTTTTTTTTTTTTTTTTTTTTTTTTT BIEL2       TELAPSE        4.91 TCPU        3.89
 TTTTTTTTTTTTTTTTTTTTTTTTTTTTTT TOTENY      TELAPSE        4.92 TCPU        3.90
 NUMERICALLY INTEGRATED DENSITY    100.0000148199
 TTTTTTTTTTTTTTTTTTTTTTTTTTTTTT NUMDFT      TELAPSE        5.53 TCPU        4.51
 CYC   2 ETOT(AU) -1.403806697108E+03 DETOT -4.74E-01 tst  4.07E-01 PX  2.81E-01
 TTTTTTTTTTTTTTTTTTTTTTTTTTTTTT FDIK        TELAPSE        5.54 TCPU        4.52
 INSULATING STATE - LEVEL SHIFTER    0.60 au
 TOP OF VALENCE BANDS -    BAND     50; K    1; EIG -3.9186560E-01 AU
 BOTTOM OF VIRTUAL BANDS - BAND     51; K    1; EIG  1.5559870E-01 AU
 TTTTTTTTTTTTTTTTTTTTTTTTTTTTTT PDIG        TELAPSE        5.55 TCPU        4.52
 CHARGE NORMALIZATION FACTOR   1.00000000
 TOTAL ATOMIC CHARGES:
  12.2292223  12.2292223  12.3455454  12.3455454   8.4750774   8.4750774
   8.4750774   8.4750774   8.4750774   8.4750774
 TTTTTTTTTTTTTTTTTTTTTTTTTTTTTT QGAM        TELAPSE        5.55 TCPU        4.53
 TTTTTTTTTTTTTTTTTTTTTTTTTTTTTT BIEL2       TELAPSE        5.58 TCPU        4.55
 TTTTTTTTTTTTTTTTTTTTTTTTTTTTTT TOTENY      TELAPSE        5.59 TCPU        4.57
 NUMERICALLY INTEGRATED DENSITY    100.0000146962
 TTTTTTTTTTTTTTTTTTTTTTTTTTTTTT NUMDFT      TELAPSE        6.15 TCPU        5.13
 CYC   3 ETOT(AU) -1.403845415302E+03 DETOT -3.87E-02 tst  5.09E-02 PX  1.43E-01
 TTTTTTTTTTTTTTTTTTTTTTTTTTTTTT FDIK        TELAPSE        6.17 TCPU        5.14
 INSULATING STATE - LEVEL SHIFTER    0.60 au
 TOP OF VALENCE BANDS -    BAND     50; K    1; EIG -4.8798121E-01 AU
 BOTTOM OF VIRTUAL BANDS - BAND     51; K    1; EIG  1.4000095E-01 AU
 TTTTTTTTTTTTTTTTTTTTTTTTTTTTTT PDIG        TELAPSE        6.17 TCPU        5.15
 CHARGE NORMALIZATION FACTOR   1.00000000
 TOTAL ATOMIC CHARGES:
  12.2071345  12.2071345  12.3358032  12.3358032   8.4856875   8.4856875
   8.4856875   8.4856875   8.4856875   8.4856875
 TTTTTTTTTTTTTTTTTTTTTTTTTTTTTT QGAM        TELAPSE        6.17 TCPU        5.15
 TTTTTTTTTTTTTTTTTTTTTTTTTTTTTT BIEL2       TELAPSE        6.20 TCPU        5.18
 TTTTTTTTTTTTTTTTTTTTTTTTTTTTTT TOTENY      TELAPSE        6.22 TCPU        5.19
 NUMERICALLY INTEGRATED DENSITY    100.0000146563
 TTTTTTTTTTTTTTTTTTTTTTTTTTTTTT NUMDFT      TELAPSE        6.79 TCPU        5.76
 CYC   4 ETOT(AU) -1.403853313554E+03 DETOT -7.90E-03 tst  3.05E-03 PX  3.28E-02
 TTTTTTTTTTTTTTTTTTTTTTTTTTTTTT FDIK        TELAPSE        6.80 TCPU        5.77
 INSULATING STATE - LEVEL SHIFTER    0.60 au
 TOP OF VALENCE BANDS -    BAND     50; K    1; EIG -5.2389156E-01 AU
 BOTTOM OF VIRTUAL BANDS - BAND     51; K    1; EIG  1.2952273E-01 AU
 TTTTTTTTTTTTTTTTTTTTTTTTTTTTTT PDIG        TELAPSE        6.80 TCPU        5.78
 CHARGE NORMALIZATION FACTOR   1.00000000
 TOTAL ATOMIC CHARGES:
  12.1912737  12.1912737  12.2869670  12.2869670   8.5072531   8.5072531
   8.5072531   8.5072531   8.5072531   8.5072531
 TTTTTTTTTTTTTTTTTTTTTTTTTTTTTT QGAM        TELAPSE        6.80 TCPU        5.78
 TTTTTTTTTTTTTTTTTTTTTTTTTTTTTT BIEL2       TELAPSE        6.83 TCPU        5.81
 TTTTTTTTTTTTTTTTTTTTTTTTTTTTTT TOTENY      TELAPSE        6.85 TCPU        5.82
 NUMERICALLY INTEGRATED DENSITY    100.0000146356
 TTTTTTTTTTTTTTTTTTTTTTTTTTTTTT NUMDFT      TELAPSE        7.44 TCPU        6.42
 CYC   5 ETOT(AU) -1.403857373465E+03 DETOT -4.06E-03 tst  8.91E-04 PX  1.37E-02
 TTTTTTTTTTTTTTTTTTTTTTTTTTTTTT FDIK        TELAPSE        7.45 TCPU        6.42
 INSULATING STATE - LEVEL SHIFTER    0.60 au
 TOP OF VALENCE BANDS -    BAND     50; K    1; EIG -5.2747690E-01 AU
 BOTTOM OF VIRTUAL BANDS - BAND     51; K    1; EIG  1.2657177E-01 AU
 TTTTTTTTTTTTTTTTTTTTTTTTTTTTTT PDIG        TELAPSE        7.46 TCPU        6.43
 CHARGE NORMALIZATION FACTOR   1.00000000
 TOTAL ATOMIC CHARGES:
  12.1904633  12.1904633  12.2734933  12.2734933   8.5120145   8.5120145
   8.5120145   8.5120145   8.5120145   8.5120145
 TTTTTTTTTTTTTTTTTTTTTTTTTTTTTT QGAM        TELAPSE        7.46 TCPU        6.44
 TTTTTTTTTTTTTTTTTTTTTTTTTTTTTT BIEL2       TELAPSE        7.49 TCPU        6.46
 TTTTTTTTTTTTTTTTTTTTTTTTTTTTTT TOTENY      TELAPSE        7.50 TCPU        6.48
 NUMERICALLY INTEGRATED DENSITY    100.0000146190
 TTTTTTTTTTTTTTTTTTTTTTTTTTTTTT NUMDFT      TELAPSE        8.06 TCPU        7.03
 CYC   6 ETOT(AU) -1.403858620892E+03 DETOT -1.25E-03 tst  7.53E-04 PX  6.92E-03
 TTTTTTTTTTTTTTTTTTTTTTTTTTTTTT FDIK        TELAPSE        8.07 TCPU        7.04
 INSULATING STATE - LEVEL SHIFTER    0.60 au
 TOP OF VALENCE BANDS -    BAND     50; K    1; EIG -5.2719695E-01 AU
 BOTTOM OF VIRTUAL BANDS - BAND     51; K    1; EIG  1.2547746E-01 AU
 TTTTTTTTTTTTTTTTTTTTTTTTTTTTTT PDIG        TELAPSE        8.08 TCPU        7.05
 CHARGE NORMALIZATION FACTOR   1.00000000
 TOTAL ATOMIC CHARGES:
  12.1923261  12.1923261  12.2765262  12.2765262   8.5103826   8.5103826
   8.5103826   8.5103826   8.5103826   8.5103826
 TTTTTTTTTTTTTTTTTTTTTTTTTTTTTT QGAM        TELAPSE        8.08 TCPU        7.05
 TTTTTTTTTTTTTTTTTTTTTTTTTTTTTT BIEL2       TELAPSE        8.11 TCPU        7.08
 TTTTTTTTTTTTTTTTTTTTTTTTTTTTTT TOTENY      TELAPSE        8.12 TCPU        7.09
 NUMERICALLY INTEGRATED DENSITY    100.0000146072
 TTTTTTTTTTTTTTTTTTTTTTTTTTTTTT NUMDFT      TELAPSE        8.69 TCPU        7.67
 CYC   7 ETOT(AU) -1.403859354471E+03 DETOT -7.34E-04 tst  6.11E-04 PX  6.92E-03
 TTTTTTTTTTTTTTTTTTTTTTTTTTTTTT FDIK        TELAPSE        8.70 TCPU        7.68
 INSULATING STATE - LEVEL SHIFTER    0.60 au
 TOP OF VALENCE BANDS -    BAND     50; K    1; EIG -5.2891158E-01 AU
 BOTTOM OF VIRTUAL BANDS - BAND     51; K    1; EIG  1.2444880E-01 AU
 TTTTTTTTTTTTTTTTTTTTTTTTTTTTTT PDIG        TELAPSE        8.71 TCPU        7.68
 CHARGE NORMALIZATION FACTOR   1.00000000
 TOTAL ATOMIC CHARGES:
  12.1929984  12.1929984  12.2798306  12.2798306   8.5090570   8.5090570
   8.5090570   8.5090570   8.5090570   8.5090570
 TTTTTTTTTTTTTTTTTTTTTTTTTTTTTT QGAM        TELAPSE        8.71 TCPU        7.68
 TTTTTTTTTTTTTTTTTTTTTTTTTTTTTT BIEL2       TELAPSE        8.74 TCPU        7.71
 TTTTTTTTTTTTTTTTTTTTTTTTTTTTTT TOTENY      TELAPSE        8.75 TCPU        7.72
 NUMERICALLY INTEGRATED DENSITY    100.0000145995
 TTTTTTTTTTTTTTTTTTTTTTTTTTTTTT NUMDFT      TELAPSE        9.32 TCPU        8.29
 CYC   8 ETOT(AU) -1.403859823163E+03 DETOT -4.69E-04 tst  4.19E-04 PX  5.85E-03
 TTTTTTTTTTTTTTTTTTTTTTTTTTTTTT FDIK        TELAPSE        9.33 TCPU        8.30
 INSULATING STATE - LEVEL SHIFTER    0.60 au
 TOP OF VALENCE BANDS -    BAND     50; K    1; EIG -5.3102066E-01 AU
 BOTTOM OF VIRTUAL BANDS - BAND     51; K    1; EIG  1.2353752E-01 AU
 TTTTTTTTTTTTTTTTTTTTTTTTTTTTTT PDIG        TELAPSE        9.34 TCPU        8.31
 CHARGE NORMALIZATION FACTOR   1.00000000
 TOTAL ATOMIC CHARGES:
  12.1929394  12.1929394  12.2808688  12.2808688   8.5087306   8.5087306
   8.5087306   8.5087306   8.5087306   8.5087306
 TTTTTTTTTTTTTTTTTTTTTTTTTTTTTT QGAM        TELAPSE        9.34 TCPU        8.31
 TTTTTTTTTTTTTTTTTTTTTTTTTTTTTT BIEL2       TELAPSE        9.37 TCPU        8.34
 TTTTTTTTTTTTTTTTTTTTTTTTTTTTTT TOTENY      TELAPSE        9.38 TCPU        8.35
 NUMERICALLY INTEGRATED DENSITY    100.0000145944
 TTTTTTTTTTTTTTTTTTTTTTTTTTTTTT NUMDFT      TELAPSE        9.94 TCPU        8.91
 CYC   9 ETOT(AU) -1.403860127763E+03 DETOT -3.05E-04 tst  2.74E-04 PX  4.43E-03
 TTTTTTTTTTTTTTTTTTTTTTTTTTTTTT FDIK        TELAPSE        9.95 TCPU        8.92
 INSULATING STATE - LEVEL SHIFTER    0.60 au
 TOP OF VALENCE BANDS -    BAND     50; K    1; EIG -5.3252125E-01 AU
 BOTTOM OF VIRTUAL BANDS - BAND     51; K    1; EIG  1.2287826E-01 AU
 TTTTTTTTTTTTTTTTTTTTTTTTTTTTTT PDIG        TELAPSE        9.96 TCPU        8.93
 CHARGE NORMALIZATION FACTOR   1.00000000
 TOTAL ATOMIC CHARGES:
  12.1928205  12.1928205  12.2810762  12.2810762   8.5087011   8.5087011
   8.5087011   8.5087011   8.5087011   8.5087011
 TTTTTTTTTTTTTTTTTTTTTTTTTTTTTT QGAM        TELAPSE        9.96 TCPU        8.93
 TTTTTTTTTTTTTTTTTTTTTTTTTTTTTT BIEL2       TELAPSE        9.99 TCPU        8.96
 TTTTTTTTTTTTTTTTTTTTTTTTTTTTTT TOTENY      TELAPSE       10.00 TCPU        8.97
 NUMERICALLY INTEGRATED DENSITY    100.0000145909
 TTTTTTTTTTTTTTTTTTTTTTTTTTTTTT NUMDFT      TELAPSE       10.57 TCPU        9.54
 CYC  10 ETOT(AU) -1.403860328703E+03 DETOT -2.01E-04 tst  1.89E-04 PX  3.42E-03
 TTTTTTTTTTTTTTTTTTTTTTTTTTTTTT FDIK        TELAPSE       10.58 TCPU        9.54
 INSULATING STATE - LEVEL SHIFTER    0.60 au
 TOP OF VALENCE BANDS -    BAND     50; K    1; EIG -5.3347962E-01 AU
 BOTTOM OF VIRTUAL BANDS - BAND     51; K    1; EIG  1.2242684E-01 AU
 TTTTTTTTTTTTTTTTTTTTTTTTTTTTTT PDIG        TELAPSE       10.59 TCPU        9.55
 CHARGE NORMALIZATION FACTOR   1.00000000
 TOTAL ATOMIC CHARGES:
  12.1927898  12.1927898  12.2812917  12.2812917   8.5086395   8.5086395
   8.5086395   8.5086395   8.5086395   8.5086395
 TTTTTTTTTTTTTTTTTTTTTTTTTTTTTT QGAM        TELAPSE       10.59 TCPU        9.56
 TTTTTTTTTTTTTTTTTTTTTTTTTTTTTT BIEL2       TELAPSE       10.62 TCPU        9.58
 TTTTTTTTTTTTTTTTTTTTTTTTTTTTTT TOTENY      TELAPSE       10.63 TCPU        9.60
 NUMERICALLY INTEGRATED DENSITY    100.0000145884
 TTTTTTTTTTTTTTTTTTTTTTTTTTTTTT NUMDFT      TELAPSE       11.21 TCPU       10.17
 CYC  11 ETOT(AU) -1.403860462529E+03 DETOT -1.34E-04 tst  1.33E-04 PX  2.74E-03
 TTTTTTTTTTTTTTTTTTTTTTTTTTTTTT FDIK        TELAPSE       11.21 TCPU       10.18
 INSULATING STATE - LEVEL SHIFTER    0.60 au
 TOP OF VALENCE BANDS -    BAND     50; K    1; EIG -5.3415664E-01 AU
 BOTTOM OF VIRTUAL BANDS - BAND     51; K    1; EIG  1.2210287E-01 AU
 TTTTTTTTTTTTTTTTTTTTTTTTTTTTTT PDIG        TELAPSE       11.22 TCPU       10.18
 CHARGE NORMALIZATION FACTOR   1.00000000
 TOTAL ATOMIC CHARGES:
  12.1927816  12.1927816  12.2815698  12.2815698   8.5085495   8.5085495
   8.5085495   8.5085495   8.5085495   8.5085495
 TTTTTTTTTTTTTTTTTTTTTTTTTTTTTT QGAM        TELAPSE       11.22 TCPU       10.19
 TTTTTTTTTTTTTTTTTTTTTTTTTTTTTT BIEL2       TELAPSE       11.25 TCPU       10.21
 TTTTTTTTTTTTTTTTTTTTTTTTTTTTTT TOTENY      TELAPSE       11.26 TCPU       10.23
 NUMERICALLY INTEGRATED DENSITY    100.0000145865
 TTTTTTTTTTTTTTTTTTTTTTTTTTTTTT NUMDFT      TELAPSE       11.83 TCPU       10.79
 CYC  12 ETOT(AU) -1.403860552576E+03 DETOT -9.00E-05 tst  9.41E-05 PX  2.23E-03
 TTTTTTTTTTTTTTTTTTTTTTTTTTTTTT FDIK        TELAPSE       11.84 TCPU       10.80
 INSULATING STATE - LEVEL SHIFTER    0.60 au
 TOP OF VALENCE BANDS -    BAND     50; K    1; EIG -5.3468155E-01 AU
 BOTTOM OF VIRTUAL BANDS - BAND     51; K    1; EIG  1.2185758E-01 AU
 TTTTTTTTTTTTTTTTTTTTTTTTTTTTTT PDIG        TELAPSE       11.84 TCPU       10.80
 CHARGE NORMALIZATION FACTOR   1.00000000
 TOTAL ATOMIC CHARGES:
  12.1927618  12.1927618  12.2818211  12.2818211   8.5084724   8.5084724
   8.5084724   8.5084724   8.5084724   8.5084724
 TTTTTTTTTTTTTTTTTTTTTTTTTTTTTT QGAM        TELAPSE       11.85 TCPU       10.81
 TTTTTTTTTTTTTTTTTTTTTTTTTTTTTT BIEL2       TELAPSE       11.88 TCPU       10.84
 TTTTTTTTTTTTTTTTTTTTTTTTTTTTTT TOTENY      TELAPSE       11.89 TCPU       10.85
 NUMERICALLY INTEGRATED DENSITY    100.0000145850
 TTTTTTTTTTTTTTTTTTTTTTTTTTTTTT NUMDFT      TELAPSE       12.46 TCPU       11.42
 CYC  13 ETOT(AU) -1.403860613651E+03 DETOT -6.11E-05 tst  6.67E-05 PX  1.80E-03
 TTTTTTTTTTTTTTTTTTTTTTTTTTTTTT FDIK        TELAPSE       12.47 TCPU       11.43
 INSULATING STATE - LEVEL SHIFTER    0.60 au
 TOP OF VALENCE BANDS -    BAND     50; K    1; EIG -5.3509701E-01 AU
 BOTTOM OF VIRTUAL BANDS - BAND     51; K    1; EIG  1.2166850E-01 AU
 TTTTTTTTTTTTTTTTTTTTTTTTTTTTTT PDIG        TELAPSE       12.48 TCPU       11.44
 CHARGE NORMALIZATION FACTOR   1.00000000
 TOTAL ATOMIC CHARGES:
  12.1927416  12.1927416  12.2820297  12.2820297   8.5084096   8.5084096
   8.5084096   8.5084096   8.5084096   8.5084096
 TTTTTTTTTTTTTTTTTTTTTTTTTTTTTT QGAM        TELAPSE       12.48 TCPU       11.44
 TTTTTTTTTTTTTTTTTTTTTTTTTTTTTT BIEL2       TELAPSE       12.51 TCPU       11.47
 TTTTTTTTTTTTTTTTTTTTTTTTTTTTTT TOTENY      TELAPSE       12.52 TCPU       11.48
 NUMERICALLY INTEGRATED DENSITY    100.0000145839
 TTTTTTTTTTTTTTTTTTTTTTTTTTTTTT NUMDFT      TELAPSE       13.08 TCPU       12.04
 CYC  14 ETOT(AU) -1.403860655310E+03 DETOT -4.17E-05 tst  4.73E-05 PX  1.46E-03
 TTTTTTTTTTTTTTTTTTTTTTTTTTTTTT FDIK        TELAPSE       13.09 TCPU       12.05
 INSULATING STATE - LEVEL SHIFTER    0.60 au
 TOP OF VALENCE BANDS -    BAND     50; K    1; EIG -5.3542632E-01 AU
 BOTTOM OF VIRTUAL BANDS - BAND     51; K    1; EIG  1.2152192E-01 AU
 TTTTTTTTTTTTTTTTTTTTTTTTTTTTTT PDIG        TELAPSE       13.10 TCPU       12.06
 CHARGE NORMALIZATION FACTOR   1.00000000
 TOTAL ATOMIC CHARGES:
  12.1927199  12.1927199  12.2821849  12.2821849   8.5083651   8.5083651
   8.5083651   8.5083651   8.5083651   8.5083651
 TTTTTTTTTTTTTTTTTTTTTTTTTTTTTT QGAM        TELAPSE       13.10 TCPU       12.06
 TTTTTTTTTTTTTTTTTTTTTTTTTTTTTT BIEL2       TELAPSE       13.13 TCPU       12.09
 TTTTTTTTTTTTTTTTTTTTTTTTTTTTTT TOTENY      TELAPSE       13.14 TCPU       12.10
 NUMERICALLY INTEGRATED DENSITY    100.0000145831
 TTTTTTTTTTTTTTTTTTTTTTTTTTTTTT NUMDFT      TELAPSE       13.72 TCPU       12.68
 CYC  15 ETOT(AU) -1.403860683889E+03 DETOT -2.86E-05 tst  3.36E-05 PX  1.18E-03
 TTTTTTTTTTTTTTTTTTTTTTTTTTTTTT FDIK        TELAPSE       13.73 TCPU       12.68
 INSULATING STATE - LEVEL SHIFTER    0.60 au
 TOP OF VALENCE BANDS -    BAND     50; K    1; EIG -5.3568457E-01 AU
 BOTTOM OF VIRTUAL BANDS - BAND     51; K    1; EIG  1.2140825E-01 AU
 TTTTTTTTTTTTTTTTTTTTTTTTTTTTTT PDIG        TELAPSE       13.73 TCPU       12.69
 CHARGE NORMALIZATION FACTOR   1.00000000
 TOTAL ATOMIC CHARGES:
  12.1927051  12.1927051  12.2823241  12.2823241   8.5083236   8.5083236
   8.5083236   8.5083236   8.5083236   8.5083236
 TTTTTTTTTTTTTTTTTTTTTTTTTTTTTT QGAM        TELAPSE       13.74 TCPU       12.69
 TTTTTTTTTTTTTTTTTTTTTTTTTTTTTT BIEL2       TELAPSE       13.76 TCPU       12.72
 TTTTTTTTTTTTTTTTTTTTTTTTTTTTTT TOTENY      TELAPSE       13.78 TCPU       12.73
 NUMERICALLY INTEGRATED DENSITY    100.0000145824
 TTTTTTTTTTTTTTTTTTTTTTTTTTTTTT NUMDFT      TELAPSE       14.35 TCPU       13.31
 CYC  16 ETOT(AU) -1.403860703548E+03 DETOT -1.97E-05 tst  2.38E-05 PX  9.56E-04
 TTTTTTTTTTTTTTTTTTTTTTTTTTTTTT FDIK        TELAPSE       14.36 TCPU       13.32
 INSULATING STATE - LEVEL SHIFTER    0.60 au
 TOP OF VALENCE BANDS -    BAND     50; K    1; EIG -5.3589136E-01 AU
 BOTTOM OF VIRTUAL BANDS - BAND     51; K    1; EIG  1.2131909E-01 AU
 TTTTTTTTTTTTTTTTTTTTTTTTTTTTTT PDIG        TELAPSE       14.37 TCPU       13.32
 CHARGE NORMALIZATION FACTOR   1.00000000
 TOTAL ATOMIC CHARGES:
  12.1926758  12.1926758  12.2824179  12.2824179   8.5083021   8.5083021
   8.5083021   8.5083021   8.5083021   8.5083021
 TTTTTTTTTTTTTTTTTTTTTTTTTTTTTT QGAM        TELAPSE       14.37 TCPU       13.32
 TTTTTTTTTTTTTTTTTTTTTTTTTTTTTT BIEL2       TELAPSE       14.40 TCPU       13.35
 TTTTTTTTTTTTTTTTTTTTTTTTTTTTTT TOTENY      TELAPSE       14.41 TCPU       13.37
 NUMERICALLY INTEGRATED DENSITY    100.0000145819
 TTTTTTTTTTTTTTTTTTTTTTTTTTTTTT NUMDFT      TELAPSE       15.00 TCPU       13.95
 CYC  17 ETOT(AU) -1.403860717184E+03 DETOT -1.36E-05 tst  1.69E-05 PX  7.74E-04
 TTTTTTTTTTTTTTTTTTTTTTTTTTTTTT FDIK        TELAPSE       15.01 TCPU       13.96
 INSULATING STATE - LEVEL SHIFTER    0.60 au
 TOP OF VALENCE BANDS -    BAND     50; K    1; EIG -5.3605266E-01 AU
 BOTTOM OF VIRTUAL BANDS - BAND     51; K    1; EIG  1.2124921E-01 AU
 TTTTTTTTTTTTTTTTTTTTTTTTTTTTTT PDIG        TELAPSE       15.01 TCPU       13.97
 CHARGE NORMALIZATION FACTOR   1.00000000
 TOTAL ATOMIC CHARGES:
  12.1926627  12.1926627  12.2825095  12.2825095   8.5082759   8.5082759
   8.5082759   8.5082759   8.5082759   8.5082759
 TTTTTTTTTTTTTTTTTTTTTTTTTTTTTT QGAM        TELAPSE       15.01 TCPU       13.97
 TTTTTTTTTTTTTTTTTTTTTTTTTTTTTT BIEL2       TELAPSE       15.04 TCPU       13.99
 TTTTTTTTTTTTTTTTTTTTTTTTTTTTTT TOTENY      TELAPSE       15.06 TCPU       14.01
 NUMERICALLY INTEGRATED DENSITY    100.0000145815
 TTTTTTTTTTTTTTTTTTTTTTTTTTTTTT NUMDFT      TELAPSE       15.66 TCPU       14.62
 CYC  18 ETOT(AU) -1.403860726632E+03 DETOT -9.45E-06 tst  1.21E-05 PX  6.33E-04
 TTTTTTTTTTTTTTTTTTTTTTTTTTTTTT FDIK        TELAPSE       15.67 TCPU       14.62
 INSULATING STATE - LEVEL SHIFTER    0.60 au
 TOP OF VALENCE BANDS -    BAND     50; K    1; EIG -5.3618498E-01 AU
 BOTTOM OF VIRTUAL BANDS - BAND     51; K    1; EIG  1.2119332E-01 AU
 TTTTTTTTTTTTTTTTTTTTTTTTTTTTTT PDIG        TELAPSE       15.68 TCPU       14.63
 CHARGE NORMALIZATION FACTOR   1.00000000
 TOTAL ATOMIC CHARGES:
  12.1926624  12.1926624  12.2825976  12.2825976   8.5082466   8.5082466
   8.5082466   8.5082466   8.5082466   8.5082466
 TTTTTTTTTTTTTTTTTTTTTTTTTTTTTT QGAM        TELAPSE       15.68 TCPU       14.63
 TTTTTTTTTTTTTTTTTTTTTTTTTTTTTT BIEL2       TELAPSE       15.71 TCPU       14.66
 TTTTTTTTTTTTTTTTTTTTTTTTTTTTTT TOTENY      TELAPSE       15.72 TCPU       14.68
 NUMERICALLY INTEGRATED DENSITY    100.0000145812
 TTTTTTTTTTTTTTTTTTTTTTTTTTTTTT NUMDFT      TELAPSE       16.33 TCPU       15.28
 CYC  19 ETOT(AU) -1.403860733213E+03 DETOT -6.58E-06 tst  8.58E-06 PX  5.17E-04
 TTTTTTTTTTTTTTTTTTTTTTTTTTTTTT FDIK        TELAPSE       16.34 TCPU       15.29
 INSULATING STATE - LEVEL SHIFTER    0.60 au
 TOP OF VALENCE BANDS -    BAND     50; K    1; EIG -5.3629511E-01 AU
 BOTTOM OF VIRTUAL BANDS - BAND     51; K    1; EIG  1.2114856E-01 AU
 TTTTTTTTTTTTTTTTTTTTTTTTTTTTTT PDIG        TELAPSE       16.35 TCPU       15.30
 CHARGE NORMALIZATION FACTOR   1.00000000
 TOTAL ATOMIC CHARGES:
  12.1926403  12.1926403  12.2826424  12.2826424   8.5082391   8.5082391
   8.5082391   8.5082391   8.5082391   8.5082391
 TTTTTTTTTTTTTTTTTTTTTTTTTTTTTT QGAM        TELAPSE       16.35 TCPU       15.30
 TTTTTTTTTTTTTTTTTTTTTTTTTTTTTT BIEL2       TELAPSE       16.38 TCPU       15.33
 TTTTTTTTTTTTTTTTTTTTTTTTTTTTTT TOTENY      TELAPSE       16.39 TCPU       15.34
 NUMERICALLY INTEGRATED DENSITY    100.0000145809
 TTTTTTTTTTTTTTTTTTTTTTTTTTTTTT NUMDFT      TELAPSE       16.97 TCPU       15.92
 CYC  20 ETOT(AU) -1.403860737821E+03 DETOT -4.61E-06 tst  6.09E-06 PX  4.19E-04
 TTTTTTTTTTTTTTTTTTTTTTTTTTTTTT FDIK        TELAPSE       16.98 TCPU       15.92
 INSULATING STATE - LEVEL SHIFTER    0.60 au
 TOP OF VALENCE BANDS -    BAND     50; K    1; EIG -5.3637932E-01 AU
 BOTTOM OF VIRTUAL BANDS - BAND     51; K    1; EIG  1.2111341E-01 AU
 TTTTTTTTTTTTTTTTTTTTTTTTTTTTTT PDIG        TELAPSE       16.98 TCPU       15.93
 CHARGE NORMALIZATION FACTOR   1.00000000
 TOTAL ATOMIC CHARGES:
  12.1926217  12.1926217  12.2826830  12.2826830   8.5082318   8.5082318
   8.5082318   8.5082318   8.5082318   8.5082318
 TTTTTTTTTTTTTTTTTTTTTTTTTTTTTT QGAM        TELAPSE       16.98 TCPU       15.93
 TTTTTTTTTTTTTTTTTTTTTTTTTTTTTT BIEL2       TELAPSE       17.01 TCPU       15.96
 TTTTTTTTTTTTTTTTTTTTTTTTTTTTTT TOTENY      TELAPSE       17.03 TCPU       15.97
 NUMERICALLY INTEGRATED DENSITY    100.0000145807
 TTTTTTTTTTTTTTTTTTTTTTTTTTTTTT NUMDFT      TELAPSE       17.59 TCPU       16.54
 CYC  21 ETOT(AU) -1.403860741078E+03 DETOT -3.26E-06 tst  4.34E-06 PX  3.43E-04
 TTTTTTTTTTTTTTTTTTTTTTTTTTTTTT FDIK        TELAPSE       17.60 TCPU       16.55
 INSULATING STATE - LEVEL SHIFTER    0.60 au
 TOP OF VALENCE BANDS -    BAND     50; K    1; EIG -5.3644674E-01 AU
 BOTTOM OF VIRTUAL BANDS - BAND     51; K    1; EIG  1.2108504E-01 AU
 TTTTTTTTTTTTTTTTTTTTTTTTTTTTTT PDIG        TELAPSE       17.60 TCPU       16.55
 CHARGE NORMALIZATION FACTOR   1.00000000
 TOTAL ATOMIC CHARGES:
  12.1926143  12.1926143  12.2827268  12.2827268   8.5082196   8.5082196
   8.5082196   8.5082196   8.5082196   8.5082196
 TTTTTTTTTTTTTTTTTTTTTTTTTTTTTT QGAM        TELAPSE       17.61 TCPU       16.56
 TTTTTTTTTTTTTTTTTTTTTTTTTTTTTT BIEL2       TELAPSE       17.64 TCPU       16.58
 TTTTTTTTTTTTTTTTTTTTTTTTTTTTTT TOTENY      TELAPSE       17.65 TCPU       16.60
 NUMERICALLY INTEGRATED DENSITY    100.0000145805
 TTTTTTTTTTTTTTTTTTTTTTTTTTTTTT NUMDFT      TELAPSE       18.21 TCPU       17.16
 CYC  22 ETOT(AU) -1.403860743369E+03 DETOT -2.29E-06 tst  3.10E-06 PX  2.83E-04
 TTTTTTTTTTTTTTTTTTTTTTTTTTTTTT FDIK        TELAPSE       18.22 TCPU       17.17
 INSULATING STATE - LEVEL SHIFTER    0.60 au
 TOP OF VALENCE BANDS -    BAND     50; K    1; EIG -5.3650418E-01 AU
 BOTTOM OF VIRTUAL BANDS - BAND     51; K    1; EIG  1.2106177E-01 AU
 TTTTTTTTTTTTTTTTTTTTTTTTTTTTTT PDIG        TELAPSE       18.22 TCPU       17.17
 CHARGE NORMALIZATION FACTOR   1.00000000
 TOTAL ATOMIC CHARGES:
  12.1926074  12.1926074  12.2827623  12.2827623   8.5082101   8.5082101
   8.5082101   8.5082101   8.5082101   8.5082101
 TTTTTTTTTTTTTTTTTTTTTTTTTTTTTT QGAM        TELAPSE       18.22 TCPU       17.17
 TTTTTTTTTTTTTTTTTTTTTTTTTTTTTT BIEL2       TELAPSE       18.25 TCPU       17.20
 TTTTTTTTTTTTTTTTTTTTTTTTTTTTTT TOTENY      TELAPSE       18.27 TCPU       17.21
 NUMERICALLY INTEGRATED DENSITY    100.0000145804
 TTTTTTTTTTTTTTTTTTTTTTTTTTTTTT NUMDFT      TELAPSE       18.88 TCPU       17.82
 CYC  23 ETOT(AU) -1.403860744991E+03 DETOT -1.62E-06 tst  2.21E-06 PX  2.32E-04
 TTTTTTTTTTTTTTTTTTTTTTTTTTTTTT FDIK        TELAPSE       18.89 TCPU       17.83
 INSULATING STATE - LEVEL SHIFTER    0.60 au
 TOP OF VALENCE BANDS -    BAND     50; K    1; EIG -5.3655168E-01 AU
 BOTTOM OF VIRTUAL BANDS - BAND     51; K    1; EIG  1.2104282E-01 AU
 TTTTTTTTTTTTTTTTTTTTTTTTTTTTTT PDIG        TELAPSE       18.89 TCPU       17.83
 CHARGE NORMALIZATION FACTOR   1.00000000
 TOTAL ATOMIC CHARGES:
  12.1926028  12.1926028  12.2827911  12.2827911   8.5082021   8.5082021
   8.5082021   8.5082021   8.5082021   8.5082021
 TTTTTTTTTTTTTTTTTTTTTTTTTTTTTT QGAM        TELAPSE       18.89 TCPU       17.83
 TTTTTTTTTTTTTTTTTTTTTTTTTTTTTT BIEL2       TELAPSE       18.92 TCPU       17.87
 TTTTTTTTTTTTTTTTTTTTTTTTTTTTTT TOTENY      TELAPSE       18.94 TCPU       17.88
 NUMERICALLY INTEGRATED DENSITY    100.0000145802
 TTTTTTTTTTTTTTTTTTTTTTTTTTTTTT NUMDFT      TELAPSE       19.50 TCPU       18.44
 CYC  24 ETOT(AU) -1.403860746146E+03 DETOT -1.15E-06 tst  1.57E-06 PX  1.90E-04
 TTTTTTTTTTTTTTTTTTTTTTTTTTTTTT FDIK        TELAPSE       19.51 TCPU       18.45
 INSULATING STATE - LEVEL SHIFTER    0.60 au
 TOP OF VALENCE BANDS -    BAND     50; K    1; EIG -5.3659053E-01 AU
 BOTTOM OF VIRTUAL BANDS - BAND     51; K    1; EIG  1.2102753E-01 AU
 TTTTTTTTTTTTTTTTTTTTTTTTTTTTTT PDIG        TELAPSE       19.51 TCPU       18.46
 CHARGE NORMALIZATION FACTOR   1.00000000
 TOTAL ATOMIC CHARGES:
  12.1926001  12.1926001  12.2828164  12.2828164   8.5081945   8.5081945
   8.5081945   8.5081945   8.5081945   8.5081945
 TTTTTTTTTTTTTTTTTTTTTTTTTTTTTT QGAM        TELAPSE       19.52 TCPU       18.46
 TTTTTTTTTTTTTTTTTTTTTTTTTTTTTT BIEL2       TELAPSE       19.54 TCPU       18.49
 TTTTTTTTTTTTTTTTTTTTTTTTTTTTTT TOTENY      TELAPSE       19.56 TCPU       18.50
 NUMERICALLY INTEGRATED DENSITY    100.0000145801
 TTTTTTTTTTTTTTTTTTTTTTTTTTTTTT NUMDFT      TELAPSE       20.13 TCPU       19.07
 CYC  25 ETOT(AU) -1.403860746971E+03 DETOT -8.25E-07 tst  1.12E-06 PX  1.56E-04
 TTTTTTTTTTTTTTTTTTTTTTTTTTTTTT FDIK        TELAPSE       20.14 TCPU       19.09
 INSULATING STATE - LEVEL SHIFTER    0.60 au
 TOP OF VALENCE BANDS -    BAND     50; K    1; EIG -5.3662268E-01 AU
 BOTTOM OF VIRTUAL BANDS - BAND     51; K    1; EIG  1.2101515E-01 AU
 TTTTTTTTTTTTTTTTTTTTTTTTTTTTTT PDIG        TELAPSE       20.15 TCPU       19.09
 CHARGE NORMALIZATION FACTOR   1.00000000
 TOTAL ATOMIC CHARGES:
  12.1925924  12.1925924  12.2828298  12.2828298   8.5081926   8.5081926
   8.5081926   8.5081926   8.5081926   8.5081926
 TTTTTTTTTTTTTTTTTTTTTTTTTTTTTT QGAM        TELAPSE       20.15 TCPU       19.09
 TTTTTTTTTTTTTTTTTTTTTTTTTTTTTT BIEL2       TELAPSE       20.18 TCPU       19.12
 TTTTTTTTTTTTTTTTTTTTTTTTTTTTTT TOTENY      TELAPSE       20.19 TCPU       19.13
 NUMERICALLY INTEGRATED DENSITY    100.0000145801
 TTTTTTTTTTTTTTTTTTTTTTTTTTTTTT NUMDFT      TELAPSE       20.77 TCPU       19.71
 CYC  26 ETOT(AU) -1.403860747563E+03 DETOT -5.92E-07 tst  7.99E-07 PX  1.28E-04
 TTTTTTTTTTTTTTTTTTTTTTTTTTTTTT FDIK        TELAPSE       20.78 TCPU       19.72
 INSULATING STATE - LEVEL SHIFTER    0.60 au
 TOP OF VALENCE BANDS -    BAND     50; K    1; EIG -5.3664751E-01 AU
 BOTTOM OF VIRTUAL BANDS - BAND     51; K    1; EIG  1.2100523E-01 AU
 TTTTTTTTTTTTTTTTTTTTTTTTTTTTTT PDIG        TELAPSE       20.79 TCPU       19.73
 CHARGE NORMALIZATION FACTOR   1.00000000
 TOTAL ATOMIC CHARGES:
  12.1925900  12.1925900  12.2828467  12.2828467   8.5081878   8.5081878
   8.5081878   8.5081878   8.5081878   8.5081878
 TTTTTTTTTTTTTTTTTTTTTTTTTTTTTT QGAM        TELAPSE       20.79 TCPU       19.73
 TTTTTTTTTTTTTTTTTTTTTTTTTTTTTT BIEL2       TELAPSE       20.82 TCPU       19.76
 TTTTTTTTTTTTTTTTTTTTTTTTTTTTTT TOTENY      TELAPSE       20.83 TCPU       19.77
 NUMERICALLY INTEGRATED DENSITY    100.0000145800
 TTTTTTTTTTTTTTTTTTTTTTTTTTTTTT NUMDFT      TELAPSE       21.40 TCPU       20.34
 CYC  27 ETOT(AU) -1.403860747991E+03 DETOT -4.29E-07 tst  5.71E-07 PX  1.06E-04
 TTTTTTTTTTTTTTTTTTTTTTTTTTTTTT FDIK        TELAPSE       21.41 TCPU       20.35
 INSULATING STATE - LEVEL SHIFTER    0.60 au
 TOP OF VALENCE BANDS -    BAND     50; K    1; EIG -5.3666876E-01 AU
 BOTTOM OF VIRTUAL BANDS - BAND     51; K    1; EIG  1.2099702E-01 AU
 TTTTTTTTTTTTTTTTTTTTTTTTTTTTTT PDIG        TELAPSE       21.41 TCPU       20.35
 CHARGE NORMALIZATION FACTOR   1.00000000
 TOTAL ATOMIC CHARGES:
  12.1925865  12.1925865  12.2828600  12.2828600   8.5081845   8.5081845
   8.5081845   8.5081845   8.5081845   8.5081845
 TTTTTTTTTTTTTTTTTTTTTTTTTTTTTT QGAM        TELAPSE       21.42 TCPU       20.36
 TTTTTTTTTTTTTTTTTTTTTTTTTTTTTT BIEL2       TELAPSE       21.44 TCPU       20.39
 TTTTTTTTTTTTTTTTTTTTTTTTTTTTTT TOTENY      TELAPSE       21.46 TCPU       20.40
 NUMERICALLY INTEGRATED DENSITY    100.0000145799
 TTTTTTTTTTTTTTTTTTTTTTTTTTTTTT NUMDFT      TELAPSE       22.04 TCPU       20.98
 CYC  28 ETOT(AU) -1.403860748303E+03 DETOT -3.11E-07 tst  4.08E-07 PX  8.74E-05
 TTTTTTTTTTTTTTTTTTTTTTTTTTTTTT FDIK        TELAPSE       22.05 TCPU       20.99
 INSULATING STATE - LEVEL SHIFTER    0.60 au
 TOP OF VALENCE BANDS -    BAND     50; K    1; EIG -5.3668628E-01 AU
 BOTTOM OF VIRTUAL BANDS - BAND     51; K    1; EIG  1.2099026E-01 AU
 TTTTTTTTTTTTTTTTTTTTTTTTTTTTTT PDIG        TELAPSE       22.05 TCPU       20.99
 CHARGE NORMALIZATION FACTOR   1.00000000
 TOTAL ATOMIC CHARGES:
  12.1925828  12.1925828  12.2828690  12.2828690   8.5081827   8.5081827
   8.5081827   8.5081827   8.5081827   8.5081827
 TTTTTTTTTTTTTTTTTTTTTTTTTTTTTT QGAM        TELAPSE       22.05 TCPU       20.99
 TTTTTTTTTTTTTTTTTTTTTTTTTTTTTT BIEL2       TELAPSE       22.08 TCPU       21.02
 TTTTTTTTTTTTTTTTTTTTTTTTTTTTTT TOTENY      TELAPSE       22.10 TCPU       21.04
 NUMERICALLY INTEGRATED DENSITY    100.0000145799
 TTTTTTTTTTTTTTTTTTTTTTTTTTTTTT NUMDFT      TELAPSE       22.67 TCPU       21.61
 CYC  29 ETOT(AU) -1.403860748534E+03 DETOT -2.31E-07 tst  2.91E-07 PX  7.17E-05
 TTTTTTTTTTTTTTTTTTTTTTTTTTTTTT FDIK        TELAPSE       22.68 TCPU       21.62
 INSULATING STATE - LEVEL SHIFTER    0.60 au
 TOP OF VALENCE BANDS -    BAND     50; K    1; EIG -5.3670037E-01 AU
 BOTTOM OF VIRTUAL BANDS - BAND     51; K    1; EIG  1.2098472E-01 AU
 TTTTTTTTTTTTTTTTTTTTTTTTTTTTTT PDIG        TELAPSE       22.69 TCPU       21.63
 CHARGE NORMALIZATION FACTOR   1.00000000
 TOTAL ATOMIC CHARGES:
  12.1925805  12.1925805  12.2828780  12.2828780   8.5081805   8.5081805
   8.5081805   8.5081805   8.5081805   8.5081805
 TTTTTTTTTTTTTTTTTTTTTTTTTTTTTT QGAM        TELAPSE       22.69 TCPU       21.63
 TTTTTTTTTTTTTTTTTTTTTTTTTTTTTT BIEL2       TELAPSE       22.72 TCPU       21.66
 TTTTTTTTTTTTTTTTTTTTTTTTTTTTTT TOTENY      TELAPSE       22.73 TCPU       21.67
 NUMERICALLY INTEGRATED DENSITY    100.0000145798
 TTTTTTTTTTTTTTTTTTTTTTTTTTTTTT NUMDFT      TELAPSE       23.30 TCPU       22.24
 CYC  30 ETOT(AU) -1.403860748701E+03 DETOT -1.67E-07 tst  2.08E-07 PX  5.96E-05
 TTTTTTTTTTTTTTTTTTTTTTTTTTTTTT FDIK        TELAPSE       23.31 TCPU       22.25
 INSULATING STATE - LEVEL SHIFTER    0.60 au
 TOP OF VALENCE BANDS -    BAND     50; K    1; EIG -5.3671228E-01 AU
 BOTTOM OF VIRTUAL BANDS - BAND     51; K    1; EIG  1.2098012E-01 AU
 TTTTTTTTTTTTTTTTTTTTTTTTTTTTTT PDIG        TELAPSE       23.31 TCPU       22.25
 CHARGE NORMALIZATION FACTOR   1.00000000
 TOTAL ATOMIC CHARGES:
  12.1925791  12.1925791  12.2828856  12.2828856   8.5081785   8.5081785
   8.5081785   8.5081785   8.5081785   8.5081785
 TTTTTTTTTTTTTTTTTTTTTTTTTTTTTT QGAM        TELAPSE       23.31 TCPU       22.25
 TTTTTTTTTTTTTTTTTTTTTTTTTTTTTT BIEL2       TELAPSE       23.34 TCPU       22.28
 TTTTTTTTTTTTTTTTTTTTTTTTTTTTTT TOTENY      TELAPSE       23.36 TCPU       22.30
 NUMERICALLY INTEGRATED DENSITY    100.0000145798
 TTTTTTTTTTTTTTTTTTTTTTTTTTTTTT NUMDFT      TELAPSE       23.92 TCPU       22.87
 CYC  31 ETOT(AU) -1.403860748827E+03 DETOT -1.26E-07 tst  1.48E-07 PX  4.92E-05
 TTTTTTTTTTTTTTTTTTTTTTTTTTTTTT FDIK        TELAPSE       23.93 TCPU       22.87
 INSULATING STATE - LEVEL SHIFTER    0.60 au
 TOP OF VALENCE BANDS -    BAND     50; K    1; EIG -5.3672227E-01 AU
 BOTTOM OF VIRTUAL BANDS - BAND     51; K    1; EIG  1.2097633E-01 AU
 TTTTTTTTTTTTTTTTTTTTTTTTTTTTTT PDIG        TELAPSE       23.94 TCPU       22.88
 CHARGE NORMALIZATION FACTOR   1.00000000
 TOTAL ATOMIC CHARGES:
  12.1925772  12.1925772  12.2828912  12.2828912   8.5081772   8.5081772
   8.5081772   8.5081772   8.5081772   8.5081772
 TTTTTTTTTTTTTTTTTTTTTTTTTTTTTT QGAM        TELAPSE       23.94 TCPU       22.89
 TTTTTTTTTTTTTTTTTTTTTTTTTTTTTT BIEL2       TELAPSE       23.97 TCPU       22.91
 TTTTTTTTTTTTTTTTTTTTTTTTTTTTTT TOTENY      TELAPSE       23.98 TCPU       22.93
 NUMERICALLY INTEGRATED DENSITY    100.0000145798
 TTTTTTTTTTTTTTTTTTTTTTTTTTTTTT NUMDFT      TELAPSE       24.55 TCPU       23.49
 CYC  32 ETOT(AU) -1.403860748920E+03 DETOT -9.31E-08 tst  1.06E-07 PX  4.07E-05
 TTTTTTTTTTTTTTTTTTTTTTTTTTTTTT FDIK        TELAPSE       24.56 TCPU       23.50
 INSULATING STATE - LEVEL SHIFTER    0.60 au
 TOP OF VALENCE BANDS -    BAND     50; K    1; EIG -5.3673040E-01 AU
 BOTTOM OF VIRTUAL BANDS - BAND     51; K    1; EIG  1.2097320E-01 AU
 TTTTTTTTTTTTTTTTTTTTTTTTTTTTTT PDIG        TELAPSE       24.56 TCPU       23.50
 CHARGE NORMALIZATION FACTOR   1.00000000
 TOTAL ATOMIC CHARGES:
  12.1925764  12.1925764  12.2828967  12.2828967   8.5081756   8.5081756
   8.5081756   8.5081756   8.5081756   8.5081756
 TTTTTTTTTTTTTTTTTTTTTTTTTTTTTT QGAM        TELAPSE       24.56 TCPU       23.51
 TTTTTTTTTTTTTTTTTTTTTTTTTTTTTT BIEL2       TELAPSE       24.59 TCPU       23.53

 ::: DIPOLE MOMENT ALONG NON PERIODIC DIRECTIONS:
 ::: A.U.     (Z)  3.55271E-15
 ::: DEBYE        -9.03010E-15

 +++ ENERGIES IN A.U. +++
 ::: EXT EL-POLE : L =  0                         -3.2701295750547E+03
 ::: EXT EL-POLE : L =  1                          1.2679099684670E+00
 ::: EXT EL-POLE : L =  2                          1.0326340743832E-01
 ::: EXT EL-POLE : L =  3                          6.7326297502531E-03
 ::: EXT EL-POLE : L =  4                          9.8354626892349E-04
 ::: EXT EL-SPHEROPOLE                             0.0000000000000E+00
 ::: BIELET ZONE E-E                               2.3122120578307E+03
 ::: TOTAL E-E                                    -9.5653862767203E+02
 ::: TOTAL E-N + N-E                              -9.3707521848139E+01
 ::: TOTAL N-N                                    -1.6299082292546E+03
 ::: KINETIC ENERGY                                1.3785934755658E+03
 ::: PSEUDO TOTAL   ENERGY                        -1.3015609032090E+03
 ::: VIRIAL COEFFICIENT                            1.0287418415025E+00
 TTTTTTTTTTTTTTTTTTTTTTTTTTTTTT TOTENY      TELAPSE       24.61 TCPU       23.55
 NUMERICALLY INTEGRATED DENSITY    100.0000145797
 TTTTTTTTTTTTTTTTTTTTTTTTTTTTTT NUMDFT      TELAPSE       25.17 TCPU       24.11
 CYC  33 ETOT(AU) -1.403860748989E+03 DETOT -6.91E-08 tst  7.57E-08 PX  4.07E-05

 == SCF ENDED - CONVERGENCE ON ENERGY      E(AU) -1.4038607489889E+03 CYCLES  33


 ENERGY EXPRESSION=HARTREE+FOCK EXCH*0.20000+(BECKE      EXCH)*0.80000+LYP        CORR


 TOTAL ENERGY(DFT)(AU)( 33) -1.4038607489889E+03 DE-6.9E-08 tester 7.6E-08
 TTTTTTTTTTTTTTTTTTTTTTTTTTTTTT EDFT        TELAPSE       25.17 TCPU       24.11
 EIGENVECTORS IN FORTRAN UNIT 10
 TTTTTTTTTTTTTTTTTTTTTTTTTTTTTT END         TELAPSE       25.20 TCPU       24.13
 EEEEEEEEEE TERMINATION  DATE 02 08 2016 TIME 18:07:31.9
NODE    0 CPU TIME =        24.134
NODE    1 CPU TIME =        24.150
NODE    2 CPU TIME =        24.182
NODE    3 CPU TIME =        24.174
NODE    4 CPU TIME =        24.178
NODE    5 CPU TIME =        24.178
NODE    6 CPU TIME =        24.154
NODE    7 CPU TIME =        24.178
    TOTAL CPU TIME =       193.324
Tue Aug  2 18:07:31 CEST 2016
/home0/crystal/CRYSTAL14/public/svn928_240216_pub1_0_4/bin/Linux-ifort_XE_openmpi_emt64/v1.0.4//Pproperties
BAND
AL 2 LAYERS
3 6 40 27 74 1 0
2 2 0  0 0 0
0 0 0  3 0 0
3 0 0  2 2 0
NEWK
6 12
0 0
DOSS
3  100  27 74 1  8   0
-1 1
-1 3
-1 5
PPAN
END
Tue Aug  2 18:07:32 CEST 2016
           8 PROCESSORS WORKING

         
 *******************************************************************************
 *                                                                             *
 *                               CRYSTAL14                                     *
 *                      public : 1.0.4 - Feb 23rd, 2016                        *
 *                       HTTP://WWW.CRYSTAL.UNITO.IT                           *
 *                                                                             *
 *                              MAIN AUTHORS                                   *
 *                                                                             *
 *  R. DOVESI(1,11), V.R. SAUNDERS(2), C. ROETTI(1,11), R. ORLANDO(1,11),      *
 *  C.M. ZICOVICH-WILSON(1,3), F. PASCALE(4), B. CIVALLERI(1,11),              *
 *  K. DOLL(5), N.M. HARRISON(2,6), I. J. BUSH(7), Ph. D'ARCO(8),              *
 *  M. LLUNELL(9), M. CAUSA'(10), Y. NOEL(8)                                   *
 *                                                                             *
 *        CONTRIBUTIONS TO THE CURRENT RELEASE HAVE BEEN GIVEN BY              *
 *                                                                             *
 *  L. MASCHIO(1,11), S. CASASSA(1,11), A. ERBA(1,11), M. FERRABONE(1,11),     *
 *  M. DE LA PIERRE(1,11), M. FERRERO(1,11), V. LACIVITA(1,11),                *
 *  J. BAIMA(1,11), E. ALBANESE(1,11), M.F. PEINTINGER(12), R. BAST(13),       *
 *  M. RERAT(14), B. KIRTMAN(15), R. DEMICHELIS(1,16)                          *
 *                                                                             *
 * (1) THEORETICAL CHEMISTRY GROUP - UNIVERSITA' DI TORINO - TORINO (ITALY)    *
 *     http://www.crystal.unito.it                                             *
 * (2) COMPUTATIONAL SCIENCE & ENGINEERING DEPARTMENT - STFC DARESBURY (UK)    *
 *     http://www.stfc.ac.uk/CSE/randd/cmg/CRYSTAL/25806.aspx                  *
 * (3) UNIVERSIDAD AUTONOMA DEL ESTADO DE MORELOS - CUERNAVACA (MEXICO)        *
 * (4) UNIVERSITE' DE LORRAINE - NANCY (FRANCE)                                *
 * (5) UNIVERSITAET ULM - ULM (GERMANY); (6) IMPERIAL COLLEGE - LONDON (UK)    *
 * (7) NAG - OXFORD (UK); (8) UPMC - SORBONNE UNIVERSITES - PARIS (FRANCE)     *
 * (9) UNIVERSIDAD DE BARCELONA - BARCELONA (SPAIN)                            *
 *(10) UNIVERSITA' DI NAPOLI "FEDERICO II" - NAPOLI (ITALY)                    *
 *(11) NIS - NANOSTRUCTURED INTERFACES AND SURFACES - TORINO (ITALY)           *
 *(12) MPI FUER CHEMISCHE ENERGIEKONVERSION - MUELHEIM AN DER RUHR (GERMANY)   *
 *(13) UNIVERSITY OF STOCKHOLM - STOCKHOLM (SWEDEN)                            *
 *(14) UNIVERSITE' DE PAU ET DES PAYS DE L'ADOUR - PAU (FRANCE)                *
 *(15) UNIVERSITY OF CALIFORNIA SANTA BARBARA - SANTA BARBARA (USA)            *
 *(16) CURTIN UNIVERSITY - PERTH (AUSTRALIA)                                   *
 *                                                                             *
 ********************************************************************************
 EEEEEEEEEE STARTING  DATE 02 08 2016 TIME 18:07:33.5

 *******************************************************************************
 TEST04 - CORUNDUM 111 (0001) 2 LAYERS- 2D                                       
 CRYSTAL - PROPERTIES - TYPE OF CALCULATION :  RESTRICTED CLOSED SHELL
 *******************************************************************************
 KOHN-SHAM HAMILTONIAN

 (EXCHANGE)[CORRELATION] FUNCTIONAL:(BECKE 88)[LEE-YANG-PARR]

 NON-LOCAL WEIGHTING FACTOR (EXCHANGE) =           0.9000
 NON-LOCAL WEIGHTING FACTOR [CORRELATION] =        0.8100

 HYBRID EXCHANGE - PERCENTAGE OF FOCK EXCHANGE    20.0000

 DIRECT LATTICE VECTOR COMPONENTS (ANGSTROM)
         3.94288   -2.27642    0.00000
         0.00000    4.55284    0.00000
         0.00000    0.00000  500.00000

 LATTICE PARAMETERS  (ANGSTROM AND DEGREES) - PRIMITIVE CELL
       A          B          C         ALPHA      BETA     GAMMA        VOLUME
    4.55284    4.55284  500.00000     90.0000   90.0000  120.0000      17.95129
 *******************************************************************************
 N. OF ATOMS PER CELL        10 COULOMB OVERLAP TOL          (T1) 10**   -6
 NUMBER OF SHELLS            28 COULOMB PENETRATION TOL      (T2) 10**   -6
 NUMBER OF AO                86 EXCHANGE OVERLAP TOL         (T3) 10**   -6
 N. OF ELECTRONS PER CELL   100 EXCHANGE PSEUDO OVP (F(G))   (T4) 10**   -6
 CORE ELECTRONS PER CELL     52 EXCHANGE PSEUDO OVP (P(G))   (T5) 10**  -12
 N. OF SYMMETRY OPERATORS     6 POLE ORDER IN MONO ZONE                   4
 *******************************************************************************
   ATOM N.AT.  SHELL    X(A)      Y(A)      Z(A)      EXAD       N.ELECT.
 *******************************************************************************
    1   13 AL    4    -2.629    -0.000     0.271   6.000E-01      12.193
    2   13 AL    4    -1.314    -2.276    -0.271   6.000E-01      12.193
    3   13 AL    4     0.000     0.000     1.814   6.000E-01      12.283
    4   13 AL    4     0.000     0.000    -1.814   6.000E-01      12.283
    5    8 O     2    -1.314    -0.897     1.043   3.804E-01       8.508
    6    8 O     2     1.434    -0.690     1.043   3.804E-01       8.508
    7    8 O     2    -0.120     1.587     1.043   3.804E-01       8.508
    8    8 O     2     1.314     0.897    -1.043   3.804E-01       8.508
    9    8 O     2    -1.434     0.690    -1.043   3.804E-01       8.508
   10    8 O     2     0.120    -1.587    -1.043   3.804E-01       8.508
 *******************************************************************************
 DE(K)                   0.000E+00  ENERGY LEVEL SHIFTING        0.60000
 TOTAL ENERGY -1.4038607489889E+03  CONVERGENCE ON ENER       -6.908E-08
 KIN. ENERGY   1.3785934755658E+03  VIR. COEFF.           1.02874184E+00
 N. OF SCF CYCLES               33  FERMI ENERGY              -0.114E+01
 WEIGHT OF F(I) IN F(I+1)      30
 SHRINK. FACT.(MONKH.)     6  6  1  SHRINKING FACTOR(GILAT NET)        6
 NUMBER OF K POINTS IN THE IBZ   8  CELL VOLUME (A.U.)         64.105211
 *******************************************************************************

 GCALCO - MAX INDICES DIRECT LATTICE VECTOR    83    83     0
 NO.OF VECTORS CREATED 6999 STARS  503 RMAX   378.26598 BOHR
 TTTTTTTTTTTTTTTTTTTTTTTTTTTTTT gordsh1     TELAPSE        1.02 TCPU        0.02

 MATRIX SIZE: P(G)   46670, F(G)   10071, P(G) IRR    4527, F(G) IRR    2017
 MAX G-VECTOR INDEX FOR 1- AND 2-ELECTRON INTEGRALS  31


 CAPPA:IS1  6;IS2  6;IS3  1; K PTS MONK NET   8; SYMMOPS:K SPACE   6;G SPACE   6

 WARNING **** F90MAIN3 **** BF SYMMETRY ADAPTED-INFO MODIFIED BY BAND-CALL NEWK


 *******************************************************************************
 *                                                                             *
 *  BAND STRUCTURE                                                             *
 *  AL 2 LAYERS                                                                *
 *  FROM BAND  27 TO BAND  74                                                  *
 *  TOTAL OF  40 K-POINTS ALONG THE PATH                                       *
 *                                                                             *
 *******************************************************************************

 LINE  1 ( 0.33 0.33 0.00: 0.00 0.00 0.00) IN TERMS OF PRIMITIVE LATTICE VECTORS
  17 POINTS - SHRINKING_FACTOR  96
 CARTESIAN COORD. ( 0.422 0.243 0.000):( 0.000 0.000 0.000) STEP  0.0304


 LINE  2 ( 0.00 0.00 0.00: 0.50 0.00 0.00) IN TERMS OF PRIMITIVE LATTICE VECTORS
  14 POINTS - SHRINKING_FACTOR  84
 CARTESIAN COORD. ( 0.000 0.000 0.000):( 0.422 0.000 0.000) STEP  0.0301


 LINE  3 ( 0.50 0.00 0.00: 0.33 0.33 0.00) IN TERMS OF PRIMITIVE LATTICE VECTORS
   8 POINTS - SHRINKING_FACTOR  48
 CARTESIAN COORD. ( 0.422 0.000 0.000):( 0.422 0.243 0.000) STEP  0.0304


  816 DATA WRITTEN ON UNIT 25 WITH THE FOLLOWING HEADER :
 -%-0BAND      2    2    0    0    0    0

  672 DATA WRITTEN ON UNIT 25 WITH THE FOLLOWING HEADER :
 -%-0BAND      0    0    0    3    0    0

  384 DATA WRITTEN ON UNIT 25 WITH THE FOLLOWING HEADER :
 -%-0BAND      3    0    0    2    2    0

 ENERGY RANGE (A.U.)   -0.75082 -   1.20716 EFERMI  -1.13673
     |---**-*-------------------------**--*-*-*--**-***-----**-----------------**------*--*-----**-*---*--------------***--*|
     |   ** *                         *** *** *  ** * *     **                 **      * **     ** **  *              ***  *|
     |   ** *                         *** *** ** ** * *     **                 **      * ***    ** **  *              *** **|
     |  * ***                         **  *** ** ** * *     **                 ***     * ***   ** ***  *              *** **|
     |  * ***                         **   * ******** *     **                 ***    *  ***   ** ***  *              *** **|
     |  * ***                         **   * **********     **                 ***    *  ***   ** * * *               *** **|
     |  * ***                         **  * ***********     **                 ***   *  * **   ** * * *               *** **|
     | *  ****                        **  * ***********     **                 ***   *  *  *   ** * * *               *** **|
     | *  ** *                       ***  * *** ** ****     **                 ** *  * *   **  ** * **                *** **|
     | *  ****                       * *   **** ** ****    * *                 ** * *  *   **  ** * **                 ** **|
     | *  * **                       * *   *** *** ****    * *                  *** * *     *  * ** **                 ** **|
     |*   * **                       * *   **  *** *****   *  *                 ****  *     *   *** *                  ** **|
     |*   * **                       * ** ***  *** * ***   *  *                 **** *      *   *****                  ** **|
     |*   * **                       * ** *** **** *  **   *  *                 **** *      **  *****                  ** * |
     |*   * **                       * *** ** ** ***  **  *   *                 *** *       **   ****                  ** * |
     |*   * **                       *  ** *** * ***  **  *   *                 *** *       **   ***                   ** * |
     |*---*-**-----------------------*--*--****--***--**--*---*-----------------***-*-------**---***-------------------**-*-|
     |*   * **                       *  ** *** * ***  **  *   *                 *** *       **   ***                   ** * |
     |*   * **                       * *** ** ** ***  **  *   *                 *** *       **   ****                  ** * |
     |*   * **                       * ** *** **** *  **   *  *                 **** *      **  *****                  ** * |
     |*   * **                       * ** ***  *** * ***   *  *                 **** *      *   *****                  ** **|
     |*   * **                       * *   **  *** ****    *  *                 ****  *     *   *****                  ** **|
     | *  * **                       * *   *** *** ****    * *                  * * * *     *  * *****                 ** **|
     | *  ****                       * *   *** *** ****     **                 ** * *  *   **  * *** *                 ** **|
     | *  ****                       * *   ******* ****     **                 ** * *  *   **  * * * *                 ** **|
     | *  ****                       * *   ** *********     **                 ***   *  * * *  * * * *                *** **|
     |  * ****                       * *   ** *********     **                 ***   *  * * *  * * * *                *** **|
     |  * ****                       * **  ************     **                 ***    *  ** *  *** * **               *** **|
     |  * ****                       ** *  *** ********     **                 ***    *  ***   *** *  *               *** **|
     |  ** ***                       ** *  * * **** ***     **                 ***     * ***   *** *  *               *** **|
     |---*-**------------------------**-*--*-*-****-***-----**-----------------***-----**-**---***-*--*---------------***-**|
     |   * **                        ** *  * * **** ***     **                 ***     ** **   *** * **               *** **|
     |   * **                        * **  * * **** ***     **                 ***     * ***   *** * **               *** **|
     |   * **                        * ** ** * **** ***     **                 ***     * ***   *** * * *              *** **|
     |   * **                         *** ** * **** * *     **                 ***     * ***   *** * * *              *** **|
     |   * **                         *** ****** ** * *     **                 ***     * **     * ***  *              *** **|
     |   ** *                         *** ****** ** * *     **                 **      * **     ** **  *              ***  *|
     |   ** *                         *** *** *  ** * *     **                 **      * **     ** **  *              ***  *|
     |---**-*-------------------------**--*-*-*--**-***-----**-----------------**------*--*-----**-*---*--------------***--*|

 CAPPA:IS1  6;IS2  6;IS3  1; K PTS MONK NET   8; SYMMOPS:K SPACE   6;G SPACE   6

 TTTTTTTTTTTTTTTTTTTTTTTTTTTTTT BAND        TELAPSE        1.11 TCPU        0.10

 CAPPA:IS1  6;IS2  6;IS3  1; K PTS MONK NET   8; SYMMOPS:K SPACE   6;G SPACE   6

 *******************************************************************************
 RESTART WITH NEW K POINTS NET
 *******************************************************************************
 POINTS IN THE IBZ                   8 POINTS(GILAT NET)                26
 SHRINK FACTORS(MONK.)         6  6  1 SHRINK FACTOR(GILAT)             12
 *******************************************************************************
 *** K POINTS COORDINATES (OBLIQUE COORDINATES IN UNITS OF IS =  6)
   1-R(  0  0  0)   2-C(  1  0  0)   3-C(  2  0  0)   4-R(  3  0  0)
   5-C(  1  1  0)   6-C(  2  1  0)   7-C(  3  1  0)   8-C(  2  2  0)
 TTTTTTTTTTTTTTTTTTTTTTTTTTTTTT NEWK        TELAPSE        1.14 TCPU        0.12
 ###############################################################################

 TOTAL AND PROJECTED DENSITY OF STATES - FOURIER LEGENDRE METHOD
 FROM BAND   27 TO BAND   74 ENERGY RANGE -0.75082E+00  0.12098E+01

 ###############################################################################

 NUMBER OF LEGENDRE POLYNOMIALS               8
 NUMBER OF SYMMETRIZED PWS FOR EXPANSION      8
 NUMBER OF K POINTS OF SECONDARY NET         26
 NUMBER OF PROJECTIONS                        3
 NUMBER OF ENERGY POINTS                     98

 *** PROJECTION   1 ATOMIC ORBITALS     1   2   3   4   5   6   7   8   9  10
                                       11  12  13  14

 *** PROJECTION   2 ATOMIC ORBITALS    29  30  31  32  33  34  35  36  37  38
                                       39  40  41  42

 *** PROJECTION   3 ATOMIC ORBITALS    57  58  59  60  61

 BAND     INTEGRATED DOSS PER PROJECTION AND TOTAL
           1         2         3         T
  27   0.13667   0.05794   0.26846   2.00000
  28   0.08130   0.06307   0.28521   2.00000
  29   0.06970   0.05364   0.29222   2.00000
  30   0.05790   0.05076   0.29711   2.00000
  31   0.03513   0.04776   0.30570   2.00000
  32   0.03367   0.04141   0.30830   2.00000
  33   0.18280   0.25762   0.18653   2.00000
  34   0.19899   0.19131   0.20323   2.00000
  35   0.20757   0.15858   0.21129   2.00000
  36   0.17529   0.13832   0.22880   2.00000
  37   0.12815   0.15745   0.23813   2.00000
  38   0.15276   0.10933   0.24597   2.00000
  39   0.12695   0.14197   0.24370   2.00000
  40   0.10926   0.14425   0.24883   2.00000
  41   0.09179   0.14203   0.25539   2.00000
  42   0.07023   0.11491   0.27162   2.00000
  43   0.06745   0.10123   0.27711   2.00000
  44   0.08125   0.05907   0.28656   2.00000
  45   0.04269   0.04110   0.30540   2.00000
  46   0.03936   0.07617   0.29482   2.00000
  47   0.03381   0.07962   0.29552   2.00000
  48   0.02773   0.01884   0.31781   2.00000
  49   0.01866   0.01695   0.32146   2.00000
  50   0.01375   0.01439   0.32395   2.00000
  51   0.04951   0.66512   0.09512   2.00000
  52   0.01974   0.57267   0.13586   2.00000
  53   0.16369   0.65692   0.05980   2.00000
  54   0.12787   0.75419   0.03931   2.00000
  55   0.09609   0.76990   0.04467   2.00000
  56   0.05395   0.79457   0.05049   2.00000
  57   0.18688   0.53074   0.09413   2.00000
  58   0.42361   0.30935   0.08901   2.00000
  59   0.36333   0.33963   0.09901   2.00000
  60   0.34364   0.34481   0.10385   2.00000
  61   0.68213   0.10095   0.07231   2.00000
  62   0.70025   0.08080   0.07298   2.00000
  63   0.64267   0.13486   0.07416   2.00000
  64   0.67918   0.07138   0.08315   2.00000
  65   0.78710   0.04546   0.05581   2.00000
  66   0.81675   0.02752   0.05191   2.00000
  67   0.14675   0.84770   0.00185   2.00000
  68   0.17388   0.81424   0.00396   2.00000
  69   0.11069   0.87622   0.00436   2.00000
  70   0.07014   0.91252   0.00578   2.00000
  71   0.02671   0.95481   0.00616   2.00000
  72   0.05601   0.91868   0.00843   2.00000
  73   0.80405   0.17647   0.00649   2.00000
  74   0.75591   0.22082   0.00775   2.00000

 *** INTEGRATED DENSITIES IN THE ENERGY INTERVAL PER PROJECTION AND TOTAL
       1         2         3         T
   10.46341   14.19808    7.77951   96.00000

 *** ENERGY  PROJECTED DENSITY OF STATES - FULL SCALE =   321.01743 AU

  -0.73102  213                                                                                                                     
  -0.71121  213                                                                                                                     
  -0.69141  21  3                                                                                                                   
  -0.67160  | 21          3                                                                                                         
  -0.65180  |  2               3                                                                                                    
  -0.63200  |2      3                                                                                                               
  -0.61219  3                                                                                                                       
  -0.59239  3                                                                                                                       
  -0.57258  3                                                                                                                       
  -0.55278  3                                                                                                                       
  -0.53298  3                                                                                                                       
  -0.51317  3                                                                                                                       
  -0.49337  3                                                                                                                       
  -0.47356  3                                                                                                                       
  -0.45376  3                                                                                                                       
  -0.43395  3                                                                                                                       
  -0.41415  3                                                                                                                       
  -0.39435  3                                                                                                                       
  -0.37454  3                                                                                                                       
  -0.35474  3                                                                                                                       
  -0.33493  3                                                                                                                       
  -0.31513  3                                                                                                                       
  -0.29533  3                                                                                                                       
  -0.27552  3                                                                                                                       
  -0.25572  3                                                                                                                       
  -0.23591  3                                                                                                                       
  -0.21611  |   132                                                                                                                 
  -0.19630  |  32                                                                                                                   
  -0.17650  3                                                                                                                       
  -0.15670  3                                                                                                                       
  -0.13689  |      2  1  3                                                                                                          
[...]
   0.71469  T                                                                                                                       
   0.73449  |       T                                                                                                               
   0.75429  |                         T                                                                                             
   0.77410  |                       T                                                                                               
   0.79390  |                      T                                                                                                
   0.81371  |              T                                                                                                        
   0.83351  |              T                                                                                                        
   0.85332  |       T                                                                                                               
   0.87312  |    T                                                                                                                  
   0.89292  T                                                                                                                       
   0.91273  T                                                                                                                       
   0.93253  T                                                                                                                       
   0.95234  T                                                                                                                       
   0.97214  T                                                                                                                       
   0.99194  T                                                                                                                       
   1.01175  T                                                                                                                       
   1.03155  T                                                                                                                       
   1.05136  T                                                                                                                       
   1.07116  T                                                                                                                       
   1.09097  T                                                                                                                       
   1.11077  T                                                                                                                       
   1.13057  |                                                                                                                     T 
   1.15038  |                                                                                               T                       
   1.17018  |       T                                                                                                               

  102 DATA WRITTEN ON UNIT 25 WITH THE FOLLOWING HEADER :
 -%-0DOSS      1   14    0    0    0    0

  102 DATA WRITTEN ON UNIT 25 WITH THE FOLLOWING HEADER :
 -%-0DOSS      2   14    0    0    0    0

  102 DATA WRITTEN ON UNIT 25 WITH THE FOLLOWING HEADER :
 -%-0DOSS      3    5    0    0    0    0

  102 DATA WRITTEN ON UNIT 25 WITH THE FOLLOWING HEADER :
 -%-0DOSS      4   86    0    0    0    0
 TTTTTTTTTTTTTTTTTTTTTTTTTTTTTT DOSS        TELAPSE        1.15 TCPU        0.13

 NEIGHBORS OF THE NON-EQUIVALENT ATOMS

 N = NUMBER OF NEIGHBORS AT DISTANCE R
    ATOM  N     R/ANG      R/AU   NEIGHBORS (ATOM LABELS AND CELL INDICES)
   1 AL   3     1.7684     3.3418    5 O    0 0 0    6 O   -1 0 0    7 O   -1-1 0
   1 AL   3     1.9050     3.6000    8 O   -1-1 0    9 O    0 0 0   10 O   -1 0 0
   1 AL   3     2.6839     5.0719    2 AL   0 0 0    2 AL  -1 0 0    2 AL   0 1 0
   1 AL   3     3.0481     5.7601    3 AL   0 0 0    3 AL  -1-1 0    3 AL  -1 0 0
   1 AL   3     3.0672     5.7962    5 O   -1 0 0    6 O   -1-1 0    7 O    0 0 0
   1 AL   3     3.3553     6.3407    4 AL  -1-1 0    4 AL   0 0 0    4 AL  -1 0 0

   3 AL   3     1.7684     3.3418    5 O    0 0 0    6 O    0 0 0    7 O    0 0 0
   3 AL   3     3.0481     5.7601    1 AL   0 0 0    1 AL   1 1 0    1 AL   1 0 0
   3 AL   3     3.0672     5.7962    5 O    1 1 0    6 O   -1 0 0    7 O    0-1 0
   3 AL   3     3.2702     6.1798    8 O    0 0 0    9 O    0 0 0   10 O    0 0 0
   3 AL   3     3.3553     6.3407    2 AL   0 0 0    2 AL   1 1 0    2 AL   0 1 0
   3 AL   1     3.6286     6.8570    4 AL   0 0 0

   5 O    1     1.7684     3.3418    3 AL   0 0 0
   5 O    1     1.7684     3.3418    1 AL   0 0 0
   5 O    1     1.9050     3.6000    2 AL   0 0 0
   5 O    2     2.3894     4.5153    6 O   -1-1 0    7 O    0-1 0
   5 O    1     2.5118     4.7466    8 O   -1-1 0
   5 O    2     2.6231     4.9569    9 O    0 0 0   10 O    0 0 0

 TTTTTTTTTTTTTTTTTTTTTTTTTTTTTT AFTER FIRST TELAPSE        1.16 TCPU        0.14
 MMMMMMMMMMMMMMMMMMMMMMMMMMMMMMMMMMMMMMMMMMMMMMMMMMMMMMMMMMMMMMMMMMMMMMMMMMMMMMM
     ALPHA+BETA ELECTRONS
 MULLIKEN POPULATION ANALYSIS - NO. OF ELECTRONS  100.000000

  ATOM    Z CHARGE  A.O. POPULATION

   1 AL  13 12.193  1.999  1.966  1.923  1.923  1.926  0.758  0.463  0.463
                    0.476  0.031  0.076  0.076  0.057  0.057
   2 AL  13 12.193  1.999  1.966  1.923  1.923  1.926  0.758  0.463  0.463
                    0.476  0.031  0.076  0.076  0.057  0.057
   3 AL  13 12.283  1.999  1.976  1.928  1.928  1.926  0.977  0.463  0.463
                    0.461  0.009  0.031  0.031  0.046  0.046
   4 AL  13 12.283  1.999  1.976  1.928  1.928  1.926  0.977  0.463  0.463
                    0.461  0.009  0.031  0.031  0.046  0.046
   5 O    8  8.508  1.997  1.825  1.562  1.613  1.511
   6 O    8  8.508  1.997  1.825  1.612  1.563  1.511
   7 O    8  8.508  1.997  1.825  1.589  1.586  1.511
   8 O    8  8.508  1.997  1.825  1.562  1.613  1.511
   9 O    8  8.508  1.997  1.825  1.612  1.563  1.511
  10 O    8  8.508  1.997  1.825  1.589  1.586  1.511

  ATOM    Z CHARGE  SHELL POPULATION

   1 AL  13 12.193  1.999  7.739  2.159  0.295
   2 AL  13 12.193  1.999  7.739  2.159  0.295
   3 AL  13 12.283  1.999  7.757  2.364  0.163
   4 AL  13 12.283  1.999  7.757  2.364  0.163
   5 O    8  8.508  1.997  6.511
   6 O    8  8.508  1.997  6.511
   7 O    8  8.508  1.997  6.511
   8 O    8  8.508  1.997  6.511
   9 O    8  8.508  1.997  6.511
  10 O    8  8.508  1.997  6.511

 OVERLAP POPULATION CONDENSED TO ATOMS FOR FIRST   6 NEIGHBORS

 ATOM A   1 AL   ATOM B     CELL      R(AB)/AU R(AB)/ANG    OVPOP(AB)
                  5 O    (  0  0  0)     3.342     1.768     0.200
                  8 O    ( -1 -1  0)     3.600     1.905     0.144
                  2 AL   (  0  0  0)     5.072     2.684    -0.017
                  3 AL   (  0  0  0)     5.760     3.048    -0.007
                  5 O    ( -1  0  0)     5.796     3.067    -0.001
                  4 AL   ( -1 -1  0)     6.341     3.355    -0.007

 ATOM A   3 AL   ATOM B     CELL      R(AB)/AU R(AB)/ANG    OVPOP(AB)
                  5 O    (  0  0  0)     3.342     1.768     0.250
                  1 AL   (  0  0  0)     5.760     3.048    -0.007
                  5 O    (  1  1  0)     5.796     3.067     0.002
                  8 O    (  0  0  0)     6.180     3.270    -0.000
                  2 AL   (  0  0  0)     6.341     3.355    -0.007
                  4 AL   (  0  0  0)     6.857     3.629     0.002

 ATOM A   5 O    ATOM B     CELL      R(AB)/AU R(AB)/ANG    OVPOP(AB)
                  3 AL   (  0  0  0)     3.342     1.768     0.250
                  1 AL   (  0  0  0)     3.342     1.768     0.200
                  2 AL   (  0  0  0)     3.600     1.905     0.144
                  6 O    ( -1 -1  0)     4.515     2.389    -0.009
                  8 O    ( -1 -1  0)     4.747     2.512    -0.007
                  9 O    (  0  0  0)     4.957     2.623    -0.004
 TTTTTTTTTTTTTTTTTTTTTTTTTTTTTT PPAN        TELAPSE        1.16 TCPU        0.14
 ENDPROP   
 TTTTTTTTTTTTTTTTTTTTTTTTTTTTTT END         TELAPSE        1.16 TCPU        0.14
 EEEEEEEEEE TERMINATION  DATE 02 08 2016 TIME 18:07:33.6
NODE    0 CPU TIME =         0.136
NODE    1 CPU TIME =         0.148
NODE    2 CPU TIME =         0.152
NODE    3 CPU TIME =         0.144
NODE    4 CPU TIME =         0.148
NODE    5 CPU TIME =         0.148
NODE    6 CPU TIME =         0.148
NODE    7 CPU TIME =         0.144
    TOTAL CPU TIME =         1.168
Tue Aug  2 18:07:33 CEST 2016
total 153300
-rw------- 1 civalleri users    25708 Aug  2 18:07 BAND.DAT
-rw------- 1 civalleri users     6351 Aug  2 18:07 DOSS.DAT
-rw-r--r-- 1 civalleri users      139 Aug  2 18:07 INPUT
-rw------- 1 civalleri users     2046 Aug  2 18:07 PPAN.DAT
-rwxr-xr-x 1 civalleri users 43268780 Aug  2 18:07 Pcrystal-142691
-rwxr-xr-x 1 civalleri users 25223082 Aug  2 18:07 Pproperties-142691
-rw------- 1 civalleri users        0 Aug  2 18:07 dffit3.dat
-rw------- 1 civalleri users   258416 Aug  2 18:07 fort.1.pe0
-rw------- 1 civalleri users   380160 Aug  2 18:07 fort.1.pe1
-rw------- 1 civalleri users   362440 Aug  2 18:07 fort.1.pe2
-rw------- 1 civalleri users   212064 Aug  2 18:07 fort.1.pe3
-rw------- 1 civalleri users   484888 Aug  2 18:07 fort.1.pe4
-rw------- 1 civalleri users   579640 Aug  2 18:07 fort.1.pe5
-rw------- 1 civalleri users   318416 Aug  2 18:07 fort.1.pe6
-rw------- 1 civalleri users   317336 Aug  2 18:07 fort.1.pe7
-rw------- 1 civalleri users    14800 Aug  2 18:07 fort.10.pe0
-rw------- 1 civalleri users    14800 Aug  2 18:07 fort.10.pe1
-rw------- 1 civalleri users   118344 Aug  2 18:07 fort.10.pe2
-rw------- 1 civalleri users   132752 Aug  2 18:07 fort.10.pe3
-rw------- 1 civalleri users    17968 Aug  2 18:07 fort.10.pe4
-rw------- 1 civalleri users   123760 Aug  2 18:07 fort.10.pe5
-rw------- 1 civalleri users   120664 Aug  2 18:07 fort.10.pe6
-rw------- 1 civalleri users   120664 Aug  2 18:07 fort.10.pe7
-rw------- 1 civalleri users    80576 Aug  2 18:07 fort.11.pe0
-rw------- 1 civalleri users    80576 Aug  2 18:07 fort.11.pe1
-rw------- 1 civalleri users    80576 Aug  2 18:07 fort.11.pe2
-rw------- 1 civalleri users    80576 Aug  2 18:07 fort.11.pe3
-rw------- 1 civalleri users    80576 Aug  2 18:07 fort.11.pe4
-rw------- 1 civalleri users    80576 Aug  2 18:07 fort.11.pe5
-rw------- 1 civalleri users    80576 Aug  2 18:07 fort.11.pe6
-rw------- 1 civalleri users    80576 Aug  2 18:07 fort.11.pe7
-rw------- 1 civalleri users   373368 Aug  2 18:07 fort.13.pe0
-rw------- 1 civalleri users   373368 Aug  2 18:07 fort.13.pe1
-rw------- 1 civalleri users   373368 Aug  2 18:07 fort.13.pe2
-rw------- 1 civalleri users   373368 Aug  2 18:07 fort.13.pe3
-rw------- 1 civalleri users   373368 Aug  2 18:07 fort.13.pe4
-rw------- 1 civalleri users   373368 Aug  2 18:07 fort.13.pe5
-rw------- 1 civalleri users   373368 Aug  2 18:07 fort.13.pe6
-rw------- 1 civalleri users   373368 Aug  2 18:07 fort.13.pe7
-rw------- 1 civalleri users        0 Aug  2 18:07 fort.15.pe0
-rw------- 1 civalleri users        0 Aug  2 18:07 fort.15.pe1
-rw------- 1 civalleri users        0 Aug  2 18:07 fort.15.pe2
-rw------- 1 civalleri users        0 Aug  2 18:07 fort.15.pe3
-rw------- 1 civalleri users        0 Aug  2 18:07 fort.15.pe4
-rw------- 1 civalleri users        0 Aug  2 18:07 fort.15.pe5
-rw------- 1 civalleri users        0 Aug  2 18:07 fort.15.pe6
-rw------- 1 civalleri users        0 Aug  2 18:07 fort.15.pe7
-rw------- 1 civalleri users        0 Aug  2 18:07 fort.17.pe1
-rw------- 1 civalleri users        0 Aug  2 18:07 fort.17.pe2
-rw------- 1 civalleri users        0 Aug  2 18:07 fort.17.pe3
-rw------- 1 civalleri users        0 Aug  2 18:07 fort.17.pe4
-rw------- 1 civalleri users        0 Aug  2 18:07 fort.17.pe5
-rw------- 1 civalleri users        0 Aug  2 18:07 fort.17.pe6
-rw------- 1 civalleri users        0 Aug  2 18:07 fort.17.pe7
-rw------- 1 civalleri users        0 Aug  2 18:07 fort.18.pe0
-rw------- 1 civalleri users        0 Aug  2 18:07 fort.18.pe1
-rw------- 1 civalleri users        0 Aug  2 18:07 fort.18.pe2
-rw------- 1 civalleri users        0 Aug  2 18:07 fort.18.pe3
-rw------- 1 civalleri users        0 Aug  2 18:07 fort.18.pe4
-rw------- 1 civalleri users        0 Aug  2 18:07 fort.18.pe5
-rw------- 1 civalleri users        0 Aug  2 18:07 fort.18.pe6
-rw------- 1 civalleri users        0 Aug  2 18:07 fort.18.pe7
-rw------- 1 civalleri users        0 Aug  2 18:07 fort.19.pe0
-rw------- 1 civalleri users        0 Aug  2 18:07 fort.19.pe1
-rw------- 1 civalleri users        0 Aug  2 18:07 fort.19.pe2
-rw------- 1 civalleri users        0 Aug  2 18:07 fort.19.pe3
-rw------- 1 civalleri users        0 Aug  2 18:07 fort.19.pe4
-rw------- 1 civalleri users        0 Aug  2 18:07 fort.19.pe5
-rw------- 1 civalleri users        0 Aug  2 18:07 fort.19.pe6
-rw------- 1 civalleri users        0 Aug  2 18:07 fort.19.pe7
-rw------- 1 civalleri users    28517 Aug  2 18:07 fort.25
-rw------- 1 civalleri users        0 Aug  2 18:07 fort.28.pe0
-rw------- 1 civalleri users        0 Aug  2 18:07 fort.28.pe1
-rw------- 1 civalleri users        0 Aug  2 18:07 fort.28.pe2
-rw------- 1 civalleri users        0 Aug  2 18:07 fort.28.pe3
-rw------- 1 civalleri users        0 Aug  2 18:07 fort.28.pe4
-rw------- 1 civalleri users        0 Aug  2 18:07 fort.28.pe5
-rw------- 1 civalleri users        0 Aug  2 18:07 fort.28.pe6
-rw------- 1 civalleri users        0 Aug  2 18:07 fort.28.pe7
-rw------- 1 civalleri users        0 Aug  2 18:07 fort.29.pe0
-rw------- 1 civalleri users        0 Aug  2 18:07 fort.29.pe1
-rw------- 1 civalleri users        0 Aug  2 18:07 fort.29.pe2
-rw------- 1 civalleri users        0 Aug  2 18:07 fort.29.pe3
-rw------- 1 civalleri users        0 Aug  2 18:07 fort.29.pe4
-rw------- 1 civalleri users        0 Aug  2 18:07 fort.29.pe5
-rw------- 1 civalleri users        0 Aug  2 18:07 fort.29.pe6
-rw------- 1 civalleri users        0 Aug  2 18:07 fort.29.pe7
-rw------- 1 civalleri users    80576 Aug  2 18:07 fort.3.pe0
-rw------- 1 civalleri users    80576 Aug  2 18:07 fort.3.pe1
-rw------- 1 civalleri users    80576 Aug  2 18:07 fort.3.pe2
-rw------- 1 civalleri users    80576 Aug  2 18:07 fort.3.pe3
-rw------- 1 civalleri users    80576 Aug  2 18:07 fort.3.pe4
-rw------- 1 civalleri users    80576 Aug  2 18:07 fort.3.pe5
-rw------- 1 civalleri users    80576 Aug  2 18:07 fort.3.pe6
-rw------- 1 civalleri users    80576 Aug  2 18:07 fort.3.pe7
-rw------- 1 civalleri users        0 Aug  2 18:07 fort.38.pe0
-rw------- 1 civalleri users        0 Aug  2 18:07 fort.38.pe1
-rw------- 1 civalleri users        0 Aug  2 18:07 fort.38.pe2
-rw------- 1 civalleri users        0 Aug  2 18:07 fort.38.pe3
-rw------- 1 civalleri users        0 Aug  2 18:07 fort.38.pe4
-rw------- 1 civalleri users        0 Aug  2 18:07 fort.38.pe5
-rw------- 1 civalleri users        0 Aug  2 18:07 fort.38.pe6
-rw------- 1 civalleri users        0 Aug  2 18:07 fort.38.pe7
-rw------- 1 civalleri users        0 Aug  2 18:07 fort.40.pe0
-rw------- 1 civalleri users        0 Aug  2 18:07 fort.40.pe1
-rw------- 1 civalleri users        0 Aug  2 18:07 fort.40.pe2
-rw------- 1 civalleri users        0 Aug  2 18:07 fort.40.pe3
-rw------- 1 civalleri users        0 Aug  2 18:07 fort.40.pe4
-rw------- 1 civalleri users        0 Aug  2 18:07 fort.40.pe5
-rw------- 1 civalleri users        0 Aug  2 18:07 fort.40.pe6
-rw------- 1 civalleri users        0 Aug  2 18:07 fort.40.pe7
-rw------- 1 civalleri users  6168948 Aug  2 18:07 fort.44.pe0
-rw------- 1 civalleri users  7350548 Aug  2 18:07 fort.44.pe1
-rw------- 1 civalleri users 10581748 Aug  2 18:07 fort.44.pe2
-rw------- 1 civalleri users  7282668 Aug  2 18:07 fort.44.pe3
-rw------- 1 civalleri users  9274876 Aug  2 18:07 fort.44.pe4
-rw------- 1 civalleri users 10963548 Aug  2 18:07 fort.44.pe5
-rw------- 1 civalleri users  8753940 Aug  2 18:07 fort.44.pe6
-rw------- 1 civalleri users  9423740 Aug  2 18:07 fort.44.pe7
-rw------- 1 civalleri users   806720 Aug  2 18:07 fort.55.pe0
-rw------- 1 civalleri users   987928 Aug  2 18:07 fort.55.pe1
-rw------- 1 civalleri users  1302688 Aug  2 18:07 fort.55.pe2
-rw------- 1 civalleri users   827968 Aug  2 18:07 fort.55.pe3
-rw------- 1 civalleri users  1151896 Aug  2 18:07 fort.55.pe4
-rw------- 1 civalleri users  1418824 Aug  2 18:07 fort.55.pe5
-rw------- 1 civalleri users  1114792 Aug  2 18:07 fort.55.pe6
-rw------- 1 civalleri users  1127936 Aug  2 18:07 fort.55.pe7
-rw------- 1 civalleri users     6536 Aug  2 18:07 fort.61.pe0
-rw------- 1 civalleri users     2640 Aug  2 18:07 fort.61.pe1
-rw------- 1 civalleri users     2640 Aug  2 18:07 fort.61.pe2
-rw------- 1 civalleri users     2640 Aug  2 18:07 fort.61.pe3
-rw------- 1 civalleri users     4376 Aug  2 18:07 fort.61.pe4
-rw------- 1 civalleri users     2640 Aug  2 18:07 fort.61.pe5
-rw------- 1 civalleri users     2640 Aug  2 18:07 fort.61.pe6
-rw------- 1 civalleri users     6248 Aug  2 18:07 fort.61.pe7
-rw------- 1 civalleri users     1664 Aug  2 18:07 fort.62.pe0
-rw------- 1 civalleri users     1664 Aug  2 18:07 fort.62.pe1
-rw------- 1 civalleri users     1664 Aug  2 18:07 fort.62.pe2
-rw------- 1 civalleri users     1520 Aug  2 18:07 fort.62.pe3
-rw------- 1 civalleri users     6400 Aug  2 18:07 fort.62.pe4
-rw------- 1 civalleri users     1984 Aug  2 18:07 fort.62.pe5
-rw------- 1 civalleri users     1344 Aug  2 18:07 fort.62.pe6
-rw------- 1 civalleri users     1344 Aug  2 18:07 fort.62.pe7
-rw------- 1 civalleri users   118344 Aug  2 18:07 fort.8.pe0
-rw------- 1 civalleri users   118344 Aug  2 18:07 fort.8.pe1
-rw------- 1 civalleri users   118344 Aug  2 18:07 fort.8.pe2
-rw------- 1 civalleri users   118344 Aug  2 18:07 fort.8.pe3
-rw------- 1 civalleri users    59176 Aug  2 18:07 fort.8.pe4
-rw------- 1 civalleri users   118344 Aug  2 18:07 fort.8.pe5
-rw------- 1 civalleri users   118344 Aug  2 18:07 fort.8.pe6
-rw------- 1 civalleri users    59176 Aug  2 18:07 fort.8.pe7
-rw------- 1 civalleri users        0 Aug  2 18:07 fort.82.pe0
-rw------- 1 civalleri users        0 Aug  2 18:07 fort.82.pe1
-rw------- 1 civalleri users        0 Aug  2 18:07 fort.82.pe2
-rw------- 1 civalleri users        0 Aug  2 18:07 fort.82.pe3
-rw------- 1 civalleri users        0 Aug  2 18:07 fort.82.pe4
-rw------- 1 civalleri users        0 Aug  2 18:07 fort.82.pe5
-rw------- 1 civalleri users        0 Aug  2 18:07 fort.82.pe6
-rw------- 1 civalleri users        0 Aug  2 18:07 fort.82.pe7
-rw------- 1 civalleri users        0 Aug  2 18:07 fort.83.pe0
-rw------- 1 civalleri users        0 Aug  2 18:07 fort.83.pe1
-rw------- 1 civalleri users        0 Aug  2 18:07 fort.83.pe2
-rw------- 1 civalleri users        0 Aug  2 18:07 fort.83.pe3
-rw------- 1 civalleri users        0 Aug  2 18:07 fort.83.pe4
-rw------- 1 civalleri users        0 Aug  2 18:07 fort.83.pe5
-rw------- 1 civalleri users        0 Aug  2 18:07 fort.83.pe6
-rw------- 1 civalleri users        0 Aug  2 18:07 fort.83.pe7
-rw------- 1 civalleri users   173508 Aug  2 18:07 fort.9
-rw------- 1 civalleri users    43840 Aug  2 18:07 fort.95.pe0
-rw------- 1 civalleri users    43840 Aug  2 18:07 fort.95.pe1
-rw------- 1 civalleri users    43840 Aug  2 18:07 fort.95.pe2
-rw------- 1 civalleri users    43840 Aug  2 18:07 fort.95.pe3
-rw------- 1 civalleri users    43840 Aug  2 18:07 fort.95.pe4
-rw------- 1 civalleri users    43840 Aug  2 18:07 fort.95.pe5
-rw------- 1 civalleri users    43840 Aug  2 18:07 fort.95.pe6
-rw------- 1 civalleri users    43840 Aug  2 18:07 fort.95.pe7
-rw------- 1 civalleri users   444822 Aug  2 18:07 fort.98
