 vasp.6.1.0 28Jan20 (build Jul 15 2020 03:17:33) complex                         
 executed on          ARA Cluster date 2022.07.10  18:27:16
 running on   24 total cores
 distrk:  each k-point on   24 cores,    1 groups
 distr:  one band on NCORE=   4 cores,    6 groups


--------------------------------------------------------------------------------------------------------


 INCAR:
 POTCAR:   PAW_PBE Mg_pv 06Sep2000                
 POTCAR:   PAW_PBE V_pv 07Sep2000                 
 POTCAR:   PAW_PBE Bi 08Apr2002                   
 POTCAR:   PAW_PBE O 08Apr2002                    
 POTCAR:   PAW_PBE Mg_pv 06Sep2000                
   VRHFIN =Mg: p6s2                                                                                 
   LEXCH  = PE                                                                                      
   EATOM  =  1056.5700 eV,   77.6557 Ry                                                             
                                                                                                    
   TITEL  = PAW_PBE Mg_pv 06Sep2000                                                                 
   LULTRA =        F    use ultrasoft PP ?                                                          
   IUNSCR =        1    unscreen: 0-lin 1-nonlin 2-no                                               
   RPACOR =    1.670    partial core radius                                                         
   POMASS =   24.305; ZVAL   =    8.000    mass and valenz                                          
   RCORE  =    2.000    outmost cutoff radius                                                       
   RWIGS  =    2.000; RWIGS  =    1.058    wigner-seitz radius (au A)                               
   ENMAX  =  265.574; ENMIN  =  199.180 eV                                                          
   ICORE  =        2    local potential                                                             
   LCOR   =        T    correct aug charges                                                         
   LPAW   =        T    paw PP                                                                      
   EAUG   =  458.128                                                                                
   DEXC   =    -.007                                                                                
   RMAX   =    2.829    core radius for proj-oper                                                   
   RAUG   =    1.300    factor for augmentation sphere                                              
   RDEP   =    2.025    radius for radial grids                                                     
   QCUT   =   -4.418; QGAM   =    8.836    optimization parameters                                  
                                                                                                    
   Description                                                                                      
     l     E      TYP  RCUT    TYP  RCUT                                                            
     1   .000     23  2.000                                                                         
     1  -.200     23  2.000                                                                         
     0   .000     23  2.000                                                                         
     0  1.500     23  2.000                                                                         
     2   .000     23  2.000                                                                         
  local pseudopotential read in
  partial core-charges read in
  atomic valenz-charges read in
  non local Contribution for L=           1  read in
    real space projection operators read in
  non local Contribution for L=           1  read in
    real space projection operators read in
  non local Contribution for L=           0  read in
    real space projection operators read in
  non local Contribution for L=           0  read in
    real space projection operators read in
    PAW grid and wavefunctions read in

   number of l-projection  operators is LMAX  =           4
   number of lm-projection operators is LMMAX =           8

 POTCAR:   PAW_PBE V_pv 07Sep2000                 
   VRHFIN =V: p6 d4 s1                                                                              
   LEXCH  = PE                                                                                      
   EATOM  =  1321.3402 eV,   97.1158 Ry                                                             
                                                                                                    
   TITEL  = PAW_PBE V_pv 07Sep2000                                                                  
   LULTRA =        F    use ultrasoft PP ?                                                          
   IUNSCR =        1    unscreen: 0-lin 1-nonlin 2-no                                               
   RPACOR =    1.700    partial core radius                                                         
   POMASS =   50.941; ZVAL   =   11.000    mass and valenz                                          
   RCORE  =    2.300    outmost cutoff radius                                                       
   RWIGS  =    2.300; RWIGS  =    1.217    wigner-seitz radius (au A)                               
   ENMAX  =  263.675; ENMIN  =  197.756 eV                                                          
   RCLOC  =    1.779    cutoff for local pot                                                        
   LCOR   =        T    correct aug charges                                                         
   LPAW   =        T    paw PP                                                                      
   EAUG   =  598.473                                                                                
   DEXC   =    -.006                                                                                
   RMAX   =    2.839    core radius for proj-oper                                                   
   RAUG   =    1.300    factor for augmentation sphere                                              
   RDEP   =    2.430    radius for radial grids                                                     
   RDEPT  =    1.700    core radius for aug-charge                                                  
   QCUT   =   -4.402; QGAM   =    8.804    optimization parameters                                  
                                                                                                    
   Description                                                                                      
     l     E      TYP  RCUT    TYP  RCUT                                                            
     1   .000     23  2.000                                                                         
     1   .400     23  2.000                                                                         
     2   .000     23  2.300                                                                         
     2   .000     23  2.300                                                                         
     0   .000     23  2.300                                                                         
     0  2.000     23  2.300                                                                         
     3   .000      7   .000                                                                         
  local pseudopotential read in
  partial core-charges read in
  atomic valenz-charges read in
  non local Contribution for L=           1  read in
    real space projection operators read in
  non local Contribution for L=           1  read in
    real space projection operators read in
  non local Contribution for L=           2  read in
    real space projection operators read in
  non local Contribution for L=           2  read in
    real space projection operators read in
  non local Contribution for L=           0  read in
    real space projection operators read in
  non local Contribution for L=           0  read in
    real space projection operators read in
    PAW grid and wavefunctions read in

   number of l-projection  operators is LMAX  =           6
   number of lm-projection operators is LMMAX =          18

 POTCAR:   PAW_PBE Bi 08Apr2002                   
   VRHFIN =Bi:                                                                                      
   LEXCH  = PE                                                                                      
   EATOM  =   150.8132 eV,   11.0845 Ry                                                             
                                                                                                    
   TITEL  = PAW_PBE Bi 08Apr2002                                                                    
   LULTRA =        F    use ultrasoft PP ?                                                          
   IUNSCR =        1    unscreen: 0-lin 1-nonlin 2-no                                               
   RPACOR =    2.200    partial core radius                                                         
   POMASS =  208.980; ZVAL   =    5.000    mass and valenz                                          
   RCORE  =    3.000    outmost cutoff radius                                                       
   RWIGS  =    3.090; RWIGS  =    1.635    wigner-seitz radius (au A)                               
   ENMAX  =  105.037; ENMIN  =   78.777 eV                                                          
   ICORE  =        3    local potential                                                             
   LCOR   =        T    correct aug charges                                                         
   LPAW   =        T    paw PP                                                                      
   EAUG   =  265.427                                                                                
   DEXC   =    -.112                                                                                
   RMAX   =    4.499    core radius for proj-oper                                                   
   RAUG   =    1.300    factor for augmentation sphere                                              
   RDEP   =    3.012    radius for radial grids                                                     
   QCUT   =   -2.778; QGAM   =    5.557    optimization parameters                                  
                                                                                                    
   Description                                                                                      
     l     E      TYP  RCUT    TYP  RCUT                                                            
     0   .000     23  3.000                                                                         
     0  -.900     23  3.000                                                                         
     1   .000     23  3.000                                                                         
     1 -1.000     23  3.000                                                                         
     2  -.200     23  3.000                                                                         
     3  -.100      7  3.000                                                                         
  local pseudopotential read in
  partial core-charges read in
  atomic valenz-charges read in
  non local Contribution for L=           0  read in
    real space projection operators read in
  non local Contribution for L=           0  read in
    real space projection operators read in
  non local Contribution for L=           1  read in
    real space projection operators read in
  non local Contribution for L=           1  read in
    real space projection operators read in
  non local Contribution for L=           2  read in
    real space projection operators read in
    PAW grid and wavefunctions read in

   number of l-projection  operators is LMAX  =           5
   number of lm-projection operators is LMMAX =          13

 POTCAR:   PAW_PBE O 08Apr2002                    
   VRHFIN =O: s2p4                                                                                  
   LEXCH  = PE                                                                                      
   EATOM  =   432.3788 eV,   31.7789 Ry                                                             
                                                                                                    
   TITEL  = PAW_PBE O 08Apr2002                                                                     
   LULTRA =        F    use ultrasoft PP ?                                                          
   IUNSCR =        0    unscreen: 0-lin 1-nonlin 2-no                                               
   RPACOR =     .000    partial core radius                                                         
   POMASS =   16.000; ZVAL   =    6.000    mass and valenz                                          
   RCORE  =    1.520    outmost cutoff radius                                                       
   RWIGS  =    1.550; RWIGS  =     .820    wigner-seitz radius (au A)                               
   ENMAX  =  400.000; ENMIN  =  300.000 eV                                                          
   ICORE  =        2    local potential                                                             
   LCOR   =        T    correct aug charges                                                         
   LPAW   =        T    paw PP                                                                      
   EAUG   =  605.392                                                                                
   DEXC   =     .000                                                                                
   RMAX   =    2.264    core radius for proj-oper                                                   
   RAUG   =    1.300    factor for augmentation sphere                                              
   RDEP   =    1.550    radius for radial grids                                                     
   QCUT   =   -5.520; QGAM   =   11.041    optimization parameters                                  
                                                                                                    
   Description                                                                                      
     l     E      TYP  RCUT    TYP  RCUT                                                            
     0   .000     23  1.200                                                                         
     0  -.700     23  1.200                                                                         
     1   .000     23  1.520                                                                         
     1   .600     23  1.520                                                                         
     2   .000      7  1.500                                                                         
  local pseudopotential read in
  atomic valenz-charges read in
  non local Contribution for L=           0  read in
    real space projection operators read in
  non local Contribution for L=           0  read in
    real space projection operators read in
  non local Contribution for L=           1  read in
    real space projection operators read in
  non local Contribution for L=           1  read in
    real space projection operators read in
    PAW grid and wavefunctions read in

   number of l-projection  operators is LMAX  =           4
   number of lm-projection operators is LMMAX =           8

 -----------------------------------------------------------------------------
|                                                                             |
|               ----> ADVICE to this user running VASP <----                  |
|                                                                             |
|     You have a (more or less) 'large supercell' and for larger cells it     |
|     might be more efficient to use real-space projection operators.         |
|     Therefore, try LREAL= Auto in the INCAR file.                           |
|     Mind: If you want to do very accurate calculations, keep the            |
|     reciprocal projection scheme (i.e. LREAL=.FALSE.).                      |
|                                                                             |
 -----------------------------------------------------------------------------

 PAW_PBE Mg_pv 06Sep2000                :
 energy of atom  1       EATOM=-1056.5700
 kinetic energy error for atom=    0.0016 (will be added to EATOM!!)
 PAW_PBE V_pv 07Sep2000                 :
 energy of atom  2       EATOM=-1321.3402
 kinetic energy error for atom=    0.0054 (will be added to EATOM!!)
 PAW_PBE Bi 08Apr2002                   :
 energy of atom  3       EATOM= -150.8132
 kinetic energy error for atom=    0.0001 (will be added to EATOM!!)
 PAW_PBE O 08Apr2002                    :
 energy of atom  4       EATOM= -432.3788
 kinetic energy error for atom=    0.0208 (will be added to EATOM!!)


 POSCAR: Mg4 V2 Bi2 O12
  positions in direct lattice
  No initial velocities read in
 exchange correlation table for  LEXCH =        8
   RHO(1)=    0.500       N(1)  =     2000
   RHO(2)=  100.500       N(2)  =     4000



--------------------------------------------------------------------------------------------------------


 ion  position               nearest neighbor table
   1  0.750  0.102  0.282-   9 1.98  13 2.06  16 2.06  17 2.10  19 2.10
   2  0.250  0.898  0.718-  10 1.98  15 2.06  14 2.06  18 2.10  20 2.10
   3  0.750  0.718  0.898-  12 1.98  13 2.06  16 2.06  18 2.10  20 2.10
   4  0.250  0.282  0.102-  11 1.98  15 2.06  14 2.06  19 2.10  17 2.10
   5  0.750  0.199  0.801-  12 1.71   9 1.71  14 1.76  15 1.76
   6  0.250  0.801  0.199-  10 1.71  11 1.71  13 1.76  16 1.76
   7  0.250  0.410  0.590-  18 2.25  19 2.25  20 2.25  17 2.25   8 3.57   8 3.57
   8  0.750  0.590  0.410-  18 2.25  20 2.25  19 2.25  17 2.25   7 3.57   7 3.57
   9  0.750  0.102  0.548-   5 1.71   1 1.98
  10  0.250  0.898  0.452-   6 1.71   2 1.98
  11  0.250  0.548  0.102-   6 1.71   4 1.98
  12  0.750  0.452  0.898-   5 1.71   3 1.98
  13  0.989  0.882  0.118-   6 1.76   1 2.06   3 2.06
  14  0.489  0.118  0.882-   5 1.76   4 2.06   2 2.06
  15  0.011  0.118  0.882-   5 1.76   4 2.06   2 2.06
  16  0.511  0.882  0.118-   6 1.76   1 2.06   3 2.06
  17  0.500  0.329  0.329-   1 2.10   4 2.10   8 2.25   7 2.25
  18  0.000  0.671  0.671-   2 2.10   3 2.10   7 2.25   8 2.25
  19  0.000  0.329  0.329-   4 2.10   1 2.10   8 2.25   7 2.25
  20  0.500  0.671  0.671-   3 2.10   2 2.10   8 2.25   7 2.25

 -----------------------------------------------------------------------------
|                                                                             |
|           W    W    AA    RRRRR   N    N  II  N    N   GGGG   !!!           |
|           W    W   A  A   R    R  NN   N  II  NN   N  G    G  !!!           |
|           W    W  A    A  R    R  N N  N  II  N N  N  G       !!!           |
|           W WW W  AAAAAA  RRRRR   N  N N  II  N  N N  G  GGG   !            |
|           WW  WW  A    A  R   R   N   NN  II  N   NN  G    G                |
|           W    W  A    A  R    R  N    N  II  N    N   GGGG   !!!           |
|                                                                             |
|     The determination of the symmetry of your systems shows a strong        |
|     dependence on the tolerance parameter SYMPREC. This is often the        |
|     result of "noise" in the structural parameters (lattice vectors         |
|     and/or ionic positions). Set NWRITE=3 for more details.                 |
|                                                                             |
 -----------------------------------------------------------------------------

  LATTYP: Found a base centered orthorhombic cell.
 ALAT       =     8.0146685555
 B/A-ratio  =     1.5741399272
 C/A-ratio  =     0.6887473838
  
  Lattice vectors:
  
 A1 = (   0.0000000000,   0.0580230000,  -7.4731210000)
 A2 = (   0.0000000000,  -6.7894770000,   3.1231280000)
 A3 = (  -5.5200820000,   0.0000000000,   0.0000000000)


Analysis of symmetry for initial positions (statically):
=====================================================================
 Subroutine PRICEL returns:
 Original cell was already a primitive cell.
 

 Routine SETGRP: Setting up the symmetry group for a 
 base centered orthorhombic supercell.


 Subroutine GETGRP returns: Found  8 space group operations
 (whereof  4 operations were pure point group operations)
 out of a pool of  8 trial point group operations.


The static configuration has the point symmetry C_2h.
 The point group associated with its full space group is D_2h.


Analysis of symmetry for dynamics (positions and initial velocities):
=====================================================================
 Subroutine PRICEL returns:
 Original cell was already a primitive cell.
 

 Routine SETGRP: Setting up the symmetry group for a 
 base centered orthorhombic supercell.


 Subroutine GETGRP returns: Found  8 space group operations
 (whereof  4 operations were pure point group operations)
 out of a pool of  8 trial point group operations.


The dynamic configuration has the point symmetry C_2h.
 The point group associated with its full space group is D_2h.


 Subroutine INISYM returns: Found  8 space group operations
 (whereof  4 operations are pure point group operations),
 and found     1 'primitive' translations


----------------------------------------------------------------------------------------

                                     Primitive cell                                     

  volume of cell :     279.0808

  direct lattice vectors                    reciprocal lattice vectors
     5.520082000  0.000000000  0.000000000     0.181156729 -0.000000000 -0.000000000
     0.000000000  6.789477000 -3.123128000    -0.000000000  0.147814671  0.001147667
     0.000000000 -0.058023000  7.473121000    -0.000000000  0.061773941  0.134292528

  length of vectors
     5.520082000  7.473347740  7.473346248     0.181156729  0.147819126  0.147819156

  position of ions in fractional coordinates (direct lattice)
     0.750000000  0.101644000  0.282490000
     0.249999000  0.898355000  0.717510000
     0.750000000  0.717510000  0.898355000
     0.249999000  0.282489000  0.101644000
     0.750000000  0.198699000  0.801302000
     0.249999000  0.801302000  0.198698000
     0.249999000  0.410496000  0.589505000
     0.750000000  0.589504000  0.410496000
     0.750000000  0.102182000  0.548117000
     0.249999000  0.897819000  0.451883000
     0.249999000  0.548116000  0.102180000
     0.750000000  0.451883000  0.897819000
     0.989374000  0.882220000  0.117781000
     0.489373000  0.117781000  0.882220000
     0.010627000  0.117781000  0.882220000
     0.510626000  0.882220000  0.117781000
     0.500000000  0.328550000  0.328550000
     0.000000000  0.671450000  0.671450000
     0.000000000  0.328550000  0.328550000
     0.500000000  0.671450000  0.671450000

  ion indices of the primitive-cell ions
   primitive index   ion index
                 1           1
                 2           2
                 3           3
                 4           4
                 5           5
                 6           6
                 7           7
                 8           8
                 9           9
                10          10
                11          11
                12          12
                13          13
                14          14
                15          15
                16          16
                17          17
                18          18
                19          19
                20          20

----------------------------------------------------------------------------------------



 KPOINTS: KMESH                                   

Automatic generation of k-mesh.
Space group operators:
 irot       det(A)        alpha          n_x          n_y          n_z        tau_x        tau_y        tau_z
    1     1.000000     0.000001     1.000000     0.000000     0.000000     0.000000     0.000000     0.000000
    2    -1.000000     0.000001     1.000000     0.000000     0.000000     0.000000     0.000000     0.000000
    3     1.000000   180.000000     0.000000    -0.839892    -0.542754     0.000000     0.000000     0.000000
    4    -1.000000   180.000000     0.000000    -0.839892    -0.542754     0.000000     0.000000     0.000000
    5     1.000000   179.999999     1.000000     0.000000     0.000000    -0.499999    -0.000000    -0.000000
    6    -1.000000   179.999999     1.000000     0.000000     0.000000     0.499998     0.000000     0.000000
    7     1.000000   180.000000     0.000000    -0.542754     0.839892     0.499998     0.000000     0.000000
    8    -1.000000   180.000000     0.000000    -0.542754     0.839892    -0.499999    -0.000000    -0.000000
 
 Subroutine IBZKPT returns following result:
 ===========================================
 
 Found     21 irreducible k-points:
 
 Following reciprocal coordinates:
            Coordinates               Weight
  0.000000  0.000000  0.000000      1.000000
  0.250000  0.000000  0.000000      2.000000
  0.500000  0.000000  0.000000      1.000000
  0.000000  0.250000  0.000000      4.000000
  0.250000  0.250000  0.000000      8.000000
  0.500000  0.250000  0.000000      4.000000
  0.000000  0.500000  0.000000      2.000000
  0.250000  0.500000  0.000000      4.000000
  0.500000  0.500000  0.000000      2.000000
  0.000000  0.250000  0.250000      2.000000
  0.250000  0.250000  0.250000      4.000000
  0.500000  0.250000  0.250000      2.000000
  0.000000  0.500000  0.250000      4.000000
  0.250000  0.500000  0.250000      8.000000
  0.500000  0.500000  0.250000      4.000000
  0.000000 -0.250000  0.250000      2.000000
  0.250000 -0.250000  0.250000      4.000000
  0.500000 -0.250000  0.250000      2.000000
  0.000000  0.500000  0.500000      1.000000
  0.250000  0.500000  0.500000      2.000000
  0.500000  0.500000  0.500000      1.000000
 
 Following cartesian coordinates:
            Coordinates               Weight
  0.000000  0.000000  0.000000      1.000000
  0.045289  0.000000  0.000000      2.000000
  0.090578  0.000000  0.000000      1.000000
  0.000000  0.036954  0.000287      4.000000
  0.045289  0.036954  0.000287      8.000000
  0.090578  0.036954  0.000287      4.000000
  0.000000  0.073907  0.000574      2.000000
  0.045289  0.073907  0.000574      4.000000
  0.090578  0.073907  0.000574      2.000000
  0.000000  0.052397  0.033860      2.000000
  0.045289  0.052397  0.033860      4.000000
  0.090578  0.052397  0.033860      2.000000
  0.000000  0.089351  0.034147      4.000000
  0.045289  0.089351  0.034147      8.000000
  0.090578  0.089351  0.034147      4.000000
  0.000000 -0.021510  0.033286      2.000000
  0.045289 -0.021510  0.033286      4.000000
  0.090578 -0.021510  0.033286      2.000000
  0.000000  0.104794  0.067720      1.000000
  0.045289  0.104794  0.067720      2.000000
  0.090578  0.104794  0.067720      1.000000
 
 -----------------------------------------------------------------------------
|                                                                             |
|           W    W    AA    RRRRR   N    N  II  N    N   GGGG   !!!           |
|           W    W   A  A   R    R  NN   N  II  NN   N  G    G  !!!           |
|           W    W  A    A  R    R  N N  N  II  N N  N  G       !!!           |
|           W WW W  AAAAAA  RRRRR   N  N N  II  N  N N  G  GGG   !            |
|           WW  WW  A    A  R   R   N   NN  II  N   NN  G    G                |
|           W    W  A    A  R    R  N    N  II  N    N   GGGG   !!!           |
|                                                                             |
|     The number of bands has been changed from the values supplied in        |
|     the INCAR file. This is a result of running the parallel version.       |
|     The orbitals not found in the WAVECAR file will be initialized with     |
|     random numbers, which is usually adequate. For correlated               |
|     calculations, however, you should redo the groundstate calculation.     |
|     I found NBANDS = 101. Now, NBANDS = 102.                                |
|                                                                             |
 -----------------------------------------------------------------------------



--------------------------------------------------------------------------------------------------------




 Dimension of arrays:
   k-points           NKPTS =     21   k-points in BZ     NKDIM =     21   number of bands    NBANDS=    102
   number of dos      NEDOS =    301   number of ions     NIONS =     20
   non local maximal  LDIM  =      6   non local SUM 2l+1 LMDIM =     18
   total plane-waves  NPLWV = 131712
   max r-space proj   IRMAX =      1   max aug-charges    IRDMAX=  45151
   dimension x,y,z NGX =    42 NGY =   56 NGZ =   56
   dimension x,y,z NGXF=    84 NGYF=  112 NGZF=  112
   support grid    NGXF=    84 NGYF=  112 NGZF=  112
   ions per type =               4   2   2  12
   NGX,Y,Z   is equivalent  to a cutoff of  12.65, 12.46, 12.46 a.u.
   NGXF,Y,Z  is equivalent  to a cutoff of  25.30, 24.91, 24.91 a.u.

 SYSTEM =  unknown system                          
 POSCAR =  Mg4 V2 Bi2 O12                          

 Startparameter for this run:
   NWRITE =      2    write-flag & timer
   PREC   = accura    normal or accurate (medium, high low for compatibility)
   ISTART =      0    job   : 0-new  1-cont  2-samecut
   ICHARG =      2    charge: 1-file 2-atom 10-const
   ISPIN  =      1    spin polarized calculation?
   LNONCOLLINEAR =      F non collinear calculations
   LSORBIT =      F    spin-orbit coupling
   INIWAV =      1    electr: 0-lowe 1-rand  2-diag
   LASPH  =      F    aspherical Exc in radial PAW
   METAGGA=      F    non-selfconsistent MetaGGA calc.

 Electronic Relaxation 1
   ENCUT  =  520.0 eV  38.22 Ry    6.18 a.u.  10.26 13.90 13.90*2*pi/ulx,y,z
   ENINI  =  520.0     initial cutoff
   ENAUG  =  605.4 eV  augmentation charge cutoff
   NELM   =    100;   NELMIN=  2; NELMDL= -5     # of ELM steps 
   EDIFF  = 0.1E-02   stopping-criterion for ELM
   LREAL  =      F    real-space projection
   NLSPLINE    = F    spline interpolate recip. space projectors
   LCOMPAT=      F    compatible to vasp.4.4
   GGA_COMPAT  = T    GGA compatible to vasp.4.4-vasp.4.6
   LMAXPAW     = -100 max onsite density
   LMAXMIX     =    6 max onsite mixed and CHGCAR
   VOSKOWN=      0    Vosko Wilk Nusair interpolation
   ROPT   =    0.00000   0.00000   0.00000   0.00000
 Ionic relaxation
   EDIFFG = 0.1E-01   stopping-criterion for IOM
   NSW    =      0    number of steps for IOM
   NBLOCK =      1;   KBLOCK =      1    inner block; outer block 
   IBRION =     -1    ionic relax: 0-MD 1-quasi-New 2-CG
   NFREE  =      0    steps in history (QN), initial steepest desc. (CG)
   ISIF   =      3    stress and relaxation
   IWAVPR =     10    prediction:  0-non 1-charg 2-wave 3-comb
   ISYM   =      2    0-nonsym 1-usesym 2-fastsym
   LCORR  =      T    Harris-Foulkes like correction to forces

   POTIM  = 0.5000    time-step for ionic-motion
   TEIN   =    0.0    initial temperature
   TEBEG  =    0.0;   TEEND  =   0.0 temperature during run
   SMASS  =  -3.00    Nose mass-parameter (am)
   estimated Nose-frequenzy (Omega)   =  0.10E-29 period in steps = 0.13E+47 mass=  -0.696E-27a.u.
   SCALEE = 1.0000    scale energy and forces
   NPACO  =    256;   APACO  = 16.0  distance and # of slots for P.C.
   PSTRESS=    0.0 pullay stress

  Mass of Ions in am
   POMASS =  24.30 50.94208.98 16.00
  Ionic Valenz
   ZVAL   =   8.00 11.00  5.00  6.00
  Atomic Wigner-Seitz radii
   RWIGS  =  -1.00 -1.00 -1.00 -1.00
  virtual crystal weights 
   VCA    =   1.00  1.00  1.00  1.00
   NELECT =     136.0000    total number of electrons
   NUPDOWN=      -1.0000    fix difference up-down

 DOS related values:
   EMIN   =  10.00;   EMAX   =-10.00  energy-range for DOS
   EFERMI =   0.00
   ISMEAR =     0;   SIGMA  =   0.00  broadening in eV -4-tet -1-fermi 0-gaus

 Electronic relaxation 2 (details)
   IALGO  =     38    algorithm
   LDIAG  =      T    sub-space diagonalisation (order eigenvalues)
   LSUBROT=      F    optimize rotation matrix (better conditioning)
   TURBO    =      0    0=normal 1=particle mesh
   IRESTART =      0    0=no restart 2=restart with 2 vectors
   NREBOOT  =      0    no. of reboots
   NMIN     =      0    reboot dimension
   EREF     =   0.00    reference energy to select bands
   IMIX   =      4    mixing-type and parameters
     AMIX     =   0.40;   BMIX     =  1.00
     AMIX_MAG =   1.60;   BMIX_MAG =  1.00
     AMIN     =   0.10
     WC   =   100.;   INIMIX=   1;  MIXPRE=   1;  MAXMIX= -45

 Intra band minimization:
   WEIMIN = 0.0000     energy-eigenvalue tresh-hold
   EBREAK =  0.25E-05  absolut break condition
   DEPER  =   0.30     relativ break condition  

   TIME   =   0.40     timestep for ELM

  volume/ion in A,a.u.               =      13.95        94.17
  Fermi-wavevector in a.u.,A,eV,Ry     =   1.288283  2.434501 22.581208  1.659672
  Thomas-Fermi vector in A             =   2.420246

 Write flags
   LWAVE        =      F    write WAVECAR
   LDOWNSAMPLE  =      F    k-point downsampling of WAVECAR
   LCHARG       =      F    write CHGCAR
   LVTOT        =      F    write LOCPOT, total local potential
   LVHAR        =      F    write LOCPOT, Hartree potential only
   LELF         =      F    write electronic localiz. function (ELF)
   LORBIT       =     11    0 simple, 1 ext, 2 COOP (PROOUT), +10 PAW based schemes


 Dipole corrections
   LMONO  =      F    monopole corrections only (constant potential shift)
   LDIPOL =      F    correct potential (dipole corrections)
   IDIPOL =      0    1-x, 2-y, 3-z, 4-all directions 
   EPSILON=  1.0000000 bulk dielectric constant

 LDA+U is selected, type is set to LDAUTYPE =  2
   angular momentum for each species LDAUL =    -1    2    2   -1
   U (eV)           for each species LDAUU =   0.0  3.2  2.0  0.0
   J (eV)           for each species LDAUJ =   0.0  0.0  1.0  0.0
 Exchange correlation treatment:
   GGA     =    --    GGA type
   LEXCH   =     8    internal setting for exchange type
   VOSKOWN=      0    Vosko Wilk Nusair interpolation
   LHFCALC =     F    Hartree Fock is set to
   LHFONE  =     F    Hartree Fock one center treatment
   AEXX    =    0.0000 exact exchange contribution

 Linear response parameters
   LEPSILON=     F    determine dielectric tensor
   LRPA    =     F    only Hartree local field effects (RPA)
   LNABLA  =     F    use nabla operator in PAW spheres
   LVEL    =     F    velocity operator in full k-point grid
   LINTERFAST=   F  fast interpolation
   KINTER  =     0    interpolate to denser k-point grid
   CSHIFT  =0.1000    complex shift for real part using Kramers Kronig
   OMEGAMAX=  -1.0    maximum frequency
   DEG_THRESHOLD= 0.2000000E-02 threshold for treating states as degnerate
   RTIME   =   -0.100 relaxation time in fs
  (WPLASMAI=    0.000 imaginary part of plasma frequency in eV, 0.658/RTIME)
   DFIELD  = 0.0000000 0.0000000 0.0000000 field for delta impulse in time

 Orbital magnetization related:
   ORBITALMAG=     F  switch on orbital magnetization
   LCHIMAG   =     F  perturbation theory with respect to B field
   DQ        =  0.001000  dq finite difference perturbation B field
   LLRAUG    =     F  two centre corrections for induced B field



--------------------------------------------------------------------------------------------------------


 Static calculation
 charge density and potential will be updated during run
 non-spin polarized calculation
 Variant of blocked Davidson
 Davidson routine will perform the subspace rotation
 perform sub-space diagonalisation
    after iterative eigenvector-optimisation
 modified Broyden-mixing scheme, WC =      100.0
 initial mixing is a Kerker type mixing with AMIX =  0.4000 and BMIX =      1.0000
 Hartree-type preconditioning will be used
 using additional bands           34
 reciprocal scheme for non local part
 use partial core corrections
 calculate Harris-corrections to forces   (improved forces if not selfconsistent)
 use gradient corrections 
 use of overlap-Matrix (Vanderbilt PP)
 Gauss-broadening in eV      SIGMA  =   0.00


--------------------------------------------------------------------------------------------------------


  energy-cutoff  :      520.00
  volume of cell :      279.08
      direct lattice vectors                 reciprocal lattice vectors
     5.520082000  0.000000000  0.000000000     0.181156729 -0.000000000 -0.000000000
     0.000000000  6.789477000 -3.123128000    -0.000000000  0.147814671  0.001147667
     0.000000000 -0.058023000  7.473121000    -0.000000000  0.061773941  0.134292528

  length of vectors
     5.520082000  7.473347740  7.473346248     0.181156729  0.147819126  0.147819156



 k-points in units of 2pi/SCALE and weight: KMESH                                   
   0.00000000  0.00000000  0.00000000       0.016
   0.04528918  0.00000000  0.00000000       0.031
   0.09057836  0.00000000  0.00000000       0.016
   0.00000000  0.03695367  0.00028692       0.062
   0.04528918  0.03695367  0.00028692       0.125
   0.09057836  0.03695367  0.00028692       0.062
   0.00000000  0.07390734  0.00057383       0.031
   0.04528918  0.07390734  0.00057383       0.062
   0.09057836  0.07390734  0.00057383       0.031
   0.00000000  0.05239715  0.03386005       0.031
   0.04528918  0.05239715  0.03386005       0.062
   0.09057836  0.05239715  0.03386005       0.031
   0.00000000  0.08935082  0.03414697       0.062
   0.04528918  0.08935082  0.03414697       0.125
   0.09057836  0.08935082  0.03414697       0.062
   0.00000000 -0.02151018  0.03328622       0.031
   0.04528918 -0.02151018  0.03328622       0.062
   0.09057836 -0.02151018  0.03328622       0.031
   0.00000000  0.10479431  0.06772010       0.016
   0.04528918  0.10479431  0.06772010       0.031
   0.09057836  0.10479431  0.06772010       0.016

 k-points in reciprocal lattice and weights: KMESH                                   
   0.00000000  0.00000000  0.00000000       0.016
   0.25000000  0.00000000  0.00000000       0.031
   0.50000000  0.00000000  0.00000000       0.016
   0.00000000  0.25000000  0.00000000       0.062
   0.25000000  0.25000000  0.00000000       0.125
   0.50000000  0.25000000  0.00000000       0.062
   0.00000000  0.50000000  0.00000000       0.031
   0.25000000  0.50000000  0.00000000       0.062
   0.50000000  0.50000000  0.00000000       0.031
   0.00000000  0.25000000  0.25000000       0.031
   0.25000000  0.25000000  0.25000000       0.062
   0.50000000  0.25000000  0.25000000       0.031
   0.00000000  0.50000000  0.25000000       0.062
   0.25000000  0.50000000  0.25000000       0.125
   0.50000000  0.50000000  0.25000000       0.062
   0.00000000 -0.25000000  0.25000000       0.031
   0.25000000 -0.25000000  0.25000000       0.062
   0.50000000 -0.25000000  0.25000000       0.031
   0.00000000  0.50000000  0.50000000       0.016
   0.25000000  0.50000000  0.50000000       0.031
   0.50000000  0.50000000  0.50000000       0.016

 position of ions in fractional coordinates (direct lattice) 
   0.75000000  0.10164400  0.28249000
   0.24999900  0.89835500  0.71751000
   0.75000000  0.71751000  0.89835500
   0.24999900  0.28248900  0.10164400
   0.75000000  0.19869900  0.80130200
   0.24999900  0.80130200  0.19869800
   0.24999900  0.41049600  0.58950500
   0.75000000  0.58950400  0.41049600
   0.75000000  0.10218200  0.54811700
   0.24999900  0.89781900  0.45188300
   0.24999900  0.54811600  0.10218000
   0.75000000  0.45188300  0.89781900
   0.98937400  0.88222000  0.11778100
   0.48937300  0.11778100  0.88222000
   0.01062700  0.11778100  0.88222000
   0.51062600  0.88222000  0.11778100
   0.50000000  0.32855000  0.32855000
   0.00000000  0.67145000  0.67145000
   0.00000000  0.32855000  0.32855000
   0.50000000  0.67145000  0.67145000

 position of ions in cartesian coordinates  (Angst):
   4.14006150  0.67371868  1.79363473
   1.38001498  6.05772853  2.55636139
   4.14006150  4.81939239  4.47264004
   1.38001498  1.91205488 -0.12265139
   4.14006150  1.30256834  5.36766439
   1.38001498  5.42889244 -1.01767452
   1.38001498  2.75284830  3.12341064
   4.14006150  3.97860564  1.22658983
   4.14006150  0.66195895  3.77701720
   1.38001498  6.06950184  0.57297268
   1.38001498  3.71549219 -0.94823292
   4.14006150  3.01595508  5.29822157
   5.46142561  5.98297839 -1.87509432
   2.70137909  0.74848234  6.22509167
   0.05866191  0.74848234  6.22509167
   2.81869739  5.98297839 -1.87509432
   2.76004100  2.21161921  1.42919020
   0.00000000  4.51983479  2.92080280
   0.00000000  2.21161921  1.42919020
   2.76004100  4.51983479  2.92080280



--------------------------------------------------------------------------------------------------------


 k-point   1 :   0.0000 0.0000 0.0000  plane waves:    7513
 k-point   2 :   0.2500 0.0000 0.0000  plane waves:    7493
 k-point   3 :   0.5000 0.0000 0.0000  plane waves:    7508
 k-point   4 :   0.0000 0.2500 0.0000  plane waves:    7510
 k-point   5 :   0.2500 0.2500 0.0000  plane waves:    7520
 k-point   6 :   0.5000 0.2500 0.0000  plane waves:    7500
 k-point   7 :   0.0000 0.5000 0.0000  plane waves:    7548
 k-point   8 :   0.2500 0.5000 0.0000  plane waves:    7510
 k-point   9 :   0.5000 0.5000 0.0000  plane waves:    7516
 k-point  10 :   0.0000 0.2500 0.2500  plane waves:    7509
 k-point  11 :   0.2500 0.2500 0.2500  plane waves:    7530
 k-point  12 :   0.5000 0.2500 0.2500  plane waves:    7492
 k-point  13 :   0.0000 0.5000 0.2500  plane waves:    7529
 k-point  14 :   0.2500 0.5000 0.2500  plane waves:    7509
 k-point  15 :   0.5000 0.5000 0.2500  plane waves:    7502
 k-point  16 :   0.0000-0.2500 0.2500  plane waves:    7503
 k-point  17 :   0.2500-0.2500 0.2500  plane waves:    7520
 k-point  18 :   0.5000-0.2500 0.2500  plane waves:    7520
 k-point  19 :   0.0000 0.5000 0.5000  plane waves:    7518
 k-point  20 :   0.2500 0.5000 0.5000  plane waves:    7514
 k-point  21 :   0.5000 0.5000 0.5000  plane waves:    7512

 maximum and minimum number of plane-waves per node :      1920     1836

 maximum number of plane-waves:      7548
 maximum index in each direction: 
   IXMAX=   10   IYMAX=   14   IZMAX=   13
   IXMIN=  -10   IYMIN=  -14   IZMIN=  -14


 parallel 3D FFT for wavefunctions:
    minimum data exchange during FFTs selected (reduces bandwidth)
 parallel 3D FFT for charge:
    minimum data exchange during FFTs selected (reduces bandwidth)


 total amount of memory used by VASP MPI-rank0    72375. kBytes
=======================================================================

   base      :      30000. kBytes
   nonl-proj :      23466. kBytes
   fftplans  :       2676. kBytes
   grid      :       5052. kBytes
   one-center:         77. kBytes
   wavefun   :      11104. kBytes

     INWAV:  cpu time      0.0000: real time      0.0000
 Broyden mixing: mesh for mixing (old mesh)
   NGX = 21   NGY = 27   NGZ = 27
  (NGX  = 84   NGY  =112   NGZ  =112)
  gives a total of  15309 points

 initial charge density was supplied:
 charge density of overlapping atoms calculated
 number of electron     136.0000000 magnetization 
 keeping initial charge density in first step


--------------------------------------------------------------------------------------------------------


 Maximum index for augmentation-charges         2089 (set IRDMAX)


--------------------------------------------------------------------------------------------------------


 First call to EWALD:  gamma=   0.271
 Maximum number of real-space cells 3x 3x 3
 Maximum number of reciprocal cells 2x 3x 3

    FEWALD:  cpu time      0.0018: real time      0.0018


--------------------------------------- Iteration      1(   1)  ---------------------------------------


    POTLOK:  cpu time      0.0445: real time      0.0472
    SETDIJ:  cpu time      0.0082: real time      0.0084
atom =   5  type =  2  l = 2

 onsite density matrix

spin component  1

  0.3229  0.0000  0.0000  0.0000  0.0000
  0.0000  0.3229  0.0000  0.0000  0.0000
  0.0000  0.0000  0.3229  0.0000 -0.0000
  0.0000  0.0000  0.0000  0.3229  0.0000
  0.0000  0.0000 -0.0000  0.0000  0.3229

spin component  2

  0.3229  0.0000  0.0000  0.0000  0.0000
  0.0000  0.3229  0.0000  0.0000  0.0000
  0.0000  0.0000  0.3229  0.0000 -0.0000
  0.0000  0.0000  0.0000  0.3229  0.0000
  0.0000  0.0000 -0.0000  0.0000  0.3229

 occupancies and eigenvectors

  o =  0.3229  v =  0.0000  0.0000  1.0000 -0.0000 -0.0000 -0.0000 -0.0000 -0.0000 -0.0000 -0.0000      0.0000  0.0000  0.0000  0.0000  0.0000  0.0000  0.0000  0.0000  0.0000  0.0000
  o =  0.3229  v =  0.0000  0.0000  0.0000  0.0000  0.0000  0.0000  0.0000  1.0000  0.0000  0.0000      0.0000  0.0000  0.0000  0.0000  0.0000  0.0000  0.0000  0.0000 -0.0000 -0.0000
  o =  0.3229  v =  1.0000  0.0000  0.0000  0.0000  0.0000  0.0000  0.0000  0.0000  0.0000  0.0000      0.0000  0.0000  0.0000  0.0000  0.0000  0.0000  0.0000  0.0000  0.0000  0.0000
  o =  0.3229  v =  0.0000  0.0000  0.0000  0.0000  0.0000  1.0000  0.0000  0.0000  0.0000  0.0000      0.0000  0.0000  0.0000  0.0000  0.0000  0.0000 -0.0000 -0.0000 -0.0000 -0.0000
  o =  0.3229  v = -0.0000 -0.0000 -0.0000 -0.5257 -0.8507  0.0000  0.0000  0.0000  0.0000  0.0000     -0.0000 -0.0000 -0.0000 -0.0000 -0.0000  0.0000  0.0000  0.0000  0.0000  0.0000
  o =  0.3229  v =  0.0000  0.0000  0.0000  0.0000  0.0000  0.0000  1.0000  0.0000  0.0000  0.0000      0.0000  0.0000  0.0000  0.0000  0.0000  0.0000  0.0000 -0.0000 -0.0000 -0.0000
  o =  0.3229  v =  0.0000  1.0000 -0.0000 -0.0000 -0.0000 -0.0000 -0.0000 -0.0000 -0.0000 -0.0000      0.0000  0.0000  0.0000  0.0000  0.0000  0.0000  0.0000  0.0000  0.0000  0.0000
  o =  0.3229  v = -0.0000 -0.0000 -0.0000 -0.0000 -0.0000 -0.0000 -0.0000 -0.0000 -0.5257 -0.8507     -0.0000 -0.0000 -0.0000 -0.0000 -0.0000 -0.0000 -0.0000 -0.0000 -0.0000 -0.0000
  o =  0.3229  v =  0.0000  0.0000  0.0000  0.0000  0.0000  0.0000  0.0000  0.0000  0.8507 -0.5257      0.0000  0.0000  0.0000  0.0000  0.0000  0.0000  0.0000  0.0000  0.0000  0.0000
  o =  0.3229  v =  0.0000  0.0000  0.0000  0.8507 -0.5257  0.0000  0.0000  0.0000  0.0000  0.0000      0.0000  0.0000  0.0000  0.0000  0.0000 -0.0000 -0.0000 -0.0000 -0.0000 -0.0000
atom =   6  type =  2  l = 2

 onsite density matrix

spin component  1

  0.3229  0.0000  0.0000  0.0000  0.0000
  0.0000  0.3229  0.0000  0.0000  0.0000
  0.0000  0.0000  0.3229  0.0000 -0.0000
  0.0000  0.0000  0.0000  0.3229  0.0000
  0.0000  0.0000 -0.0000  0.0000  0.3229

spin component  2

  0.3229  0.0000  0.0000  0.0000  0.0000
  0.0000  0.3229  0.0000  0.0000  0.0000
  0.0000  0.0000  0.3229  0.0000 -0.0000
  0.0000  0.0000  0.0000  0.3229  0.0000
  0.0000  0.0000 -0.0000  0.0000  0.3229

 occupancies and eigenvectors

  o =  0.3229  v =  0.0000  0.0000  1.0000 -0.0000 -0.0000 -0.0000 -0.0000 -0.0000 -0.0000 -0.0000      0.0000  0.0000  0.0000  0.0000  0.0000  0.0000  0.0000  0.0000  0.0000  0.0000
  o =  0.3229  v =  0.0000  0.0000  0.0000  0.0000  0.0000  0.0000  0.0000  1.0000  0.0000  0.0000      0.0000  0.0000  0.0000  0.0000  0.0000  0.0000  0.0000  0.0000 -0.0000 -0.0000
  o =  0.3229  v =  1.0000  0.0000  0.0000  0.0000  0.0000  0.0000  0.0000  0.0000  0.0000  0.0000      0.0000  0.0000  0.0000  0.0000  0.0000  0.0000  0.0000  0.0000  0.0000  0.0000
  o =  0.3229  v =  0.0000  0.0000  0.0000  0.0000  0.0000  1.0000  0.0000  0.0000  0.0000  0.0000      0.0000  0.0000  0.0000  0.0000  0.0000  0.0000 -0.0000 -0.0000 -0.0000 -0.0000
  o =  0.3229  v = -0.0000 -0.0000 -0.0000 -0.5257 -0.8507  0.0000  0.0000  0.0000  0.0000  0.0000     -0.0000 -0.0000 -0.0000 -0.0000 -0.0000  0.0000  0.0000  0.0000  0.0000  0.0000
  o =  0.3229  v =  0.0000  0.0000  0.0000  0.0000  0.0000  0.0000  1.0000  0.0000  0.0000  0.0000      0.0000  0.0000  0.0000  0.0000  0.0000  0.0000  0.0000 -0.0000 -0.0000 -0.0000
  o =  0.3229  v =  0.0000  1.0000 -0.0000 -0.0000 -0.0000 -0.0000 -0.0000 -0.0000 -0.0000 -0.0000      0.0000  0.0000  0.0000  0.0000  0.0000  0.0000  0.0000  0.0000  0.0000  0.0000
  o =  0.3229  v = -0.0000 -0.0000 -0.0000 -0.0000 -0.0000 -0.0000 -0.0000 -0.0000 -0.5257 -0.8507     -0.0000 -0.0000 -0.0000 -0.0000 -0.0000 -0.0000 -0.0000 -0.0000 -0.0000 -0.0000
  o =  0.3229  v =  0.0000  0.0000  0.0000  0.0000  0.0000  0.0000  0.0000  0.0000  0.8507 -0.5257      0.0000  0.0000  0.0000  0.0000  0.0000  0.0000  0.0000  0.0000  0.0000  0.0000
  o =  0.3229  v =  0.0000  0.0000  0.0000  0.8507 -0.5257  0.0000  0.0000  0.0000  0.0000  0.0000      0.0000  0.0000  0.0000  0.0000  0.0000 -0.0000 -0.0000 -0.0000 -0.0000 -0.0000
atom =   7  type =  3  l = 2

 onsite density matrix

spin component  1

  0.0000  0.0000  0.0000  0.0000  0.0000
  0.0000  0.0000  0.0000  0.0000  0.0000
  0.0000  0.0000  0.0000  0.0000  0.0000
  0.0000  0.0000  0.0000  0.0000  0.0000
  0.0000  0.0000  0.0000  0.0000  0.0000

spin component  2

  0.0000  0.0000  0.0000  0.0000  0.0000
  0.0000  0.0000  0.0000  0.0000  0.0000
  0.0000  0.0000  0.0000  0.0000  0.0000
  0.0000  0.0000  0.0000  0.0000  0.0000
  0.0000  0.0000  0.0000  0.0000  0.0000

 occupancies and eigenvectors

  o =  0.0000  v =  1.0000  0.0000  0.0000  0.0000  0.0000  0.0000  0.0000  0.0000  0.0000  0.0000      0.0000  0.0000  0.0000  0.0000  0.0000  0.0000  0.0000  0.0000  0.0000  0.0000
  o =  0.0000  v =  0.0000  1.0000 -0.0000 -0.0000 -0.0000 -0.0000 -0.0000 -0.0000 -0.0000 -0.0000      0.0000  0.0000  0.0000  0.0000  0.0000  0.0000  0.0000  0.0000  0.0000  0.0000
  o =  0.0000  v =  0.0000  0.0000  1.0000 -0.0000 -0.0000 -0.0000 -0.0000 -0.0000 -0.0000 -0.0000      0.0000  0.0000  0.0000  0.0000  0.0000  0.0000  0.0000  0.0000  0.0000  0.0000
  o =  0.0000  v =  0.0000  0.0000  0.0000  1.0000 -0.0000 -0.0000 -0.0000 -0.0000 -0.0000 -0.0000      0.0000  0.0000  0.0000  0.0000  0.0000  0.0000  0.0000  0.0000  0.0000  0.0000
  o =  0.0000  v =  0.0000  0.0000  0.0000  0.0000  1.0000 -0.0000 -0.0000 -0.0000 -0.0000 -0.0000      0.0000  0.0000  0.0000  0.0000  0.0000  0.0000  0.0000  0.0000  0.0000  0.0000
  o =  0.0000  v =  0.0000  0.0000  0.0000  0.0000  0.0000  1.0000 -0.0000 -0.0000 -0.0000 -0.0000      0.0000  0.0000  0.0000  0.0000  0.0000  0.0000  0.0000  0.0000  0.0000  0.0000
  o =  0.0000  v =  0.0000  0.0000  0.0000  0.0000  0.0000  0.0000  1.0000 -0.0000 -0.0000 -0.0000      0.0000  0.0000  0.0000  0.0000  0.0000  0.0000  0.0000  0.0000  0.0000  0.0000
  o =  0.0000  v =  0.0000  0.0000  0.0000  0.0000  0.0000  0.0000  0.0000  1.0000 -0.0000 -0.0000      0.0000  0.0000  0.0000  0.0000  0.0000  0.0000  0.0000  0.0000  0.0000  0.0000
  o =  0.0000  v =  0.0000  0.0000  0.0000  0.0000  0.0000  0.0000  0.0000  0.0000  1.0000 -0.0000      0.0000  0.0000  0.0000  0.0000  0.0000  0.0000  0.0000  0.0000  0.0000  0.0000
  o =  0.0000  v =  0.0000  0.0000  0.0000  0.0000  0.0000  0.0000  0.0000  0.0000  0.0000  1.0000      0.0000  0.0000  0.0000  0.0000  0.0000  0.0000  0.0000  0.0000  0.0000  0.0000
atom =   8  type =  3  l = 2

 onsite density matrix

spin component  1

  0.0000  0.0000  0.0000  0.0000  0.0000
  0.0000  0.0000  0.0000  0.0000  0.0000
  0.0000  0.0000  0.0000  0.0000  0.0000
  0.0000  0.0000  0.0000  0.0000  0.0000
  0.0000  0.0000  0.0000  0.0000  0.0000

spin component  2

  0.0000  0.0000  0.0000  0.0000  0.0000
  0.0000  0.0000  0.0000  0.0000  0.0000
  0.0000  0.0000  0.0000  0.0000  0.0000
  0.0000  0.0000  0.0000  0.0000  0.0000
  0.0000  0.0000  0.0000  0.0000  0.0000

 occupancies and eigenvectors

  o =  0.0000  v =  1.0000  0.0000  0.0000  0.0000  0.0000  0.0000  0.0000  0.0000  0.0000  0.0000      0.0000  0.0000  0.0000  0.0000  0.0000  0.0000  0.0000  0.0000  0.0000  0.0000
  o =  0.0000  v =  0.0000  1.0000 -0.0000 -0.0000 -0.0000 -0.0000 -0.0000 -0.0000 -0.0000 -0.0000      0.0000  0.0000  0.0000  0.0000  0.0000  0.0000  0.0000  0.0000  0.0000  0.0000
  o =  0.0000  v =  0.0000  0.0000  1.0000 -0.0000 -0.0000 -0.0000 -0.0000 -0.0000 -0.0000 -0.0000      0.0000  0.0000  0.0000  0.0000  0.0000  0.0000  0.0000  0.0000  0.0000  0.0000
  o =  0.0000  v =  0.0000  0.0000  0.0000  1.0000 -0.0000 -0.0000 -0.0000 -0.0000 -0.0000 -0.0000      0.0000  0.0000  0.0000  0.0000  0.0000  0.0000  0.0000  0.0000  0.0000  0.0000
  o =  0.0000  v =  0.0000  0.0000  0.0000  0.0000  1.0000 -0.0000 -0.0000 -0.0000 -0.0000 -0.0000      0.0000  0.0000  0.0000  0.0000  0.0000  0.0000  0.0000  0.0000  0.0000  0.0000
  o =  0.0000  v =  0.0000  0.0000  0.0000  0.0000  0.0000  1.0000 -0.0000 -0.0000 -0.0000 -0.0000      0.0000  0.0000  0.0000  0.0000  0.0000  0.0000  0.0000  0.0000  0.0000  0.0000
  o =  0.0000  v =  0.0000  0.0000  0.0000  0.0000  0.0000  0.0000  1.0000 -0.0000 -0.0000 -0.0000      0.0000  0.0000  0.0000  0.0000  0.0000  0.0000  0.0000  0.0000  0.0000  0.0000
  o =  0.0000  v =  0.0000  0.0000  0.0000  0.0000  0.0000  0.0000  0.0000  1.0000 -0.0000 -0.0000      0.0000  0.0000  0.0000  0.0000  0.0000  0.0000  0.0000  0.0000  0.0000  0.0000
  o =  0.0000  v =  0.0000  0.0000  0.0000  0.0000  0.0000  0.0000  0.0000  0.0000  1.0000 -0.0000      0.0000  0.0000  0.0000  0.0000  0.0000  0.0000  0.0000  0.0000  0.0000  0.0000
  o =  0.0000  v =  0.0000  0.0000  0.0000  0.0000  0.0000  0.0000  0.0000  0.0000  0.0000  1.0000      0.0000  0.0000  0.0000  0.0000  0.0000  0.0000  0.0000  0.0000  0.0000  0.0000
     EDDAV:  cpu time      3.2446: real time      3.2441
       DOS:  cpu time      0.0013: real time      0.0013
    --------------------------------------------
      LOOP:  cpu time      3.2986: real time      3.3010

 eigenvalue-minimisations  :  5256
 total energy-change (2. order) : 0.1856843E+04  (-0.6539591E+04)
 number of electron     136.0000000 magnetization 
 augmentation part      136.0000000 magnetization 

 Free energy of the ion-electron system (eV)
  ---------------------------------------------------
  alpha Z        PSCENC =       350.81736993
  Ewald energy   TEWEN  =     -7020.04646784
  -Hartree energ DENC   =     -4080.11925355
  -exchange      EXHF   =         0.00000000
  -V(xc)+E(xc)   XCENC  =       300.24123102
  PAW double counting   =      7482.57017264    -7644.30609365
  entropy T*S    EENTRO =        -0.00000000
  eigenvalues    EBANDS =       108.82090059
  atomic energy  EATOM  =     12358.86516222
  Solvation  Ediel_sol  =         0.00000000
  ---------------------------------------------------
  free energy    TOTEN  =      1856.84302138 eV

  energy without entropy =     1856.84302138  energy(sigma->0) =     1856.84302138


--------------------------------------------------------------------------------------------------------




--------------------------------------- Iteration      1(   2)  ---------------------------------------


     EDDAV:  cpu time      2.9430: real time      2.9442
       DOS:  cpu time      0.0004: real time      0.0004
    --------------------------------------------
      LOOP:  cpu time      2.9434: real time      2.9446

 eigenvalue-minimisations  :  4464
 total energy-change (2. order) :-0.1726460E+04  (-0.1597576E+04)
 number of electron     136.0000000 magnetization 
 augmentation part      136.0000000 magnetization 

 Free energy of the ion-electron system (eV)
  ---------------------------------------------------
  alpha Z        PSCENC =       350.81736993
  Ewald energy   TEWEN  =     -7020.04646784
  -Hartree energ DENC   =     -4080.11925355
  -exchange      EXHF   =         0.00000000
  -V(xc)+E(xc)   XCENC  =       300.24123102
  PAW double counting   =      7482.57017264    -7644.30609365
  entropy T*S    EENTRO =         0.00000000
  eigenvalues    EBANDS =     -1617.63880566
  atomic energy  EATOM  =     12358.86516222
  Solvation  Ediel_sol  =         0.00000000
  ---------------------------------------------------
  free energy    TOTEN  =       130.38331512 eV

  energy without entropy =      130.38331512  energy(sigma->0) =      130.38331512


--------------------------------------------------------------------------------------------------------




--------------------------------------- Iteration      1(   3)  ---------------------------------------


     EDDAV:  cpu time      2.9704: real time      2.9693
       DOS:  cpu time      0.0003: real time      0.0003
    --------------------------------------------
      LOOP:  cpu time      2.9707: real time      2.9697

 eigenvalue-minimisations  :  4782
 total energy-change (2. order) :-0.2863656E+03  (-0.2789157E+03)
 number of electron     136.0000000 magnetization 
 augmentation part      136.0000000 magnetization 

 Free energy of the ion-electron system (eV)
  ---------------------------------------------------
  alpha Z        PSCENC =       350.81736993
  Ewald energy   TEWEN  =     -7020.04646784
  -Hartree energ DENC   =     -4080.11925355
  -exchange      EXHF   =         0.00000000
  -V(xc)+E(xc)   XCENC  =       300.24123102
  PAW double counting   =      7482.57017264    -7644.30609365
  entropy T*S    EENTRO =         0.00000000
  eigenvalues    EBANDS =     -1904.00437910
  atomic energy  EATOM  =     12358.86516222
  Solvation  Ediel_sol  =         0.00000000
  ---------------------------------------------------
  free energy    TOTEN  =      -155.98225832 eV

  energy without entropy =     -155.98225832  energy(sigma->0) =     -155.98225832


--------------------------------------------------------------------------------------------------------




--------------------------------------- Iteration      1(   4)  ---------------------------------------


     EDDAV:  cpu time      3.1313: real time      3.1308
       DOS:  cpu time      0.0004: real time      0.0004
    --------------------------------------------
      LOOP:  cpu time      3.1317: real time      3.1312

 eigenvalue-minimisations  :  5028
 total energy-change (2. order) :-0.1355944E+02  (-0.1345303E+02)
 number of electron     136.0000000 magnetization 
 augmentation part      136.0000000 magnetization 

 Free energy of the ion-electron system (eV)
  ---------------------------------------------------
  alpha Z        PSCENC =       350.81736993
  Ewald energy   TEWEN  =     -7020.04646784
  -Hartree energ DENC   =     -4080.11925355
  -exchange      EXHF   =         0.00000000
  -V(xc)+E(xc)   XCENC  =       300.24123102
  PAW double counting   =      7482.57017264    -7644.30609365
  entropy T*S    EENTRO =         0.00000000
  eigenvalues    EBANDS =     -1917.56382024
  atomic energy  EATOM  =     12358.86516222
  Solvation  Ediel_sol  =         0.00000000
  ---------------------------------------------------
  free energy    TOTEN  =      -169.54169946 eV

  energy without entropy =     -169.54169946  energy(sigma->0) =     -169.54169946


--------------------------------------------------------------------------------------------------------




--------------------------------------- Iteration      1(   5)  ---------------------------------------


     EDDAV:  cpu time      3.2269: real time      3.2262
       DOS:  cpu time      0.0011: real time      0.0011
    CHARGE:  cpu time      0.1245: real time      0.1245
    MIXING:  cpu time      0.0013: real time      0.0014
    --------------------------------------------
      LOOP:  cpu time      3.3539: real time      3.3532

 eigenvalue-minimisations  :  5316
 total energy-change (2. order) :-0.3518584E+00  (-0.3515224E+00)
 number of electron     136.0000033 magnetization 
 augmentation part       34.7421109 magnetization 

 Broyden mixing:
  rms(total) = 0.39152E+01    rms(broyden)= 0.39146E+01
  rms(prec ) = 0.67898E+01
  weight for this iteration     100.00

 Free energy of the ion-electron system (eV)
  ---------------------------------------------------
  alpha Z        PSCENC =       350.81736993
  Ewald energy   TEWEN  =     -7020.04646784
  -Hartree energ DENC   =     -4080.11925355
  -exchange      EXHF   =         0.00000000
  -V(xc)+E(xc)   XCENC  =       300.24123102
  PAW double counting   =      7482.57017264    -7644.30609365
  entropy T*S    EENTRO =         0.00000000
  eigenvalues    EBANDS =     -1917.91567867
  atomic energy  EATOM  =     12358.86516222
  Solvation  Ediel_sol  =         0.00000000
  ---------------------------------------------------
  free energy    TOTEN  =      -169.89355788 eV

  energy without entropy =     -169.89355788  energy(sigma->0) =     -169.89355788


--------------------------------------------------------------------------------------------------------




--------------------------------------- Iteration      1(   6)  ---------------------------------------


    POTLOK:  cpu time      0.0383: real time      0.0383
    SETDIJ:  cpu time      0.0051: real time      0.0051
atom =   5  type =  2  l = 2

 onsite density matrix

spin component  1

  0.2330  0.0000 -0.0000 -0.0162  0.0000
  0.0000  0.2405  0.0194 -0.0000 -0.0078
 -0.0000  0.0194  0.2541  0.0000  0.0087
 -0.0162 -0.0000  0.0000  0.2476 -0.0000
  0.0000 -0.0078  0.0087 -0.0000  0.2611

spin component  2

  0.2330  0.0000 -0.0000 -0.0162  0.0000
  0.0000  0.2405  0.0194 -0.0000 -0.0078
 -0.0000  0.0194  0.2541  0.0000  0.0087
 -0.0162 -0.0000  0.0000  0.2476 -0.0000
  0.0000 -0.0078  0.0087 -0.0000  0.2611

 occupancies and eigenvectors

  o =  0.2226  v = -0.8399 -0.0000 -0.0000 -0.5428  0.0000  0.0000  0.0000  0.0000  0.0000  0.0000     -0.0000 -0.0000 -0.0000 -0.0000 -0.0000 -0.0000 -0.0000 -0.0000 -0.0000 -0.0000
  o =  0.2226  v = -0.0000 -0.0000 -0.0000 -0.0000 -0.0000 -0.8399 -0.0000 -0.0000 -0.5428  0.0000     -0.0000 -0.0000 -0.0000 -0.0000 -0.0000 -0.0000  0.0000  0.0000  0.0000  0.0000
  o =  0.2233  v = -0.0000 -0.7710  0.5677 -0.0000 -0.2884 -0.0000 -0.0000 -0.0000 -0.0000 -0.0000     -0.0000 -0.0000 -0.0000 -0.0000 -0.0000  0.0000  0.0000  0.0000  0.0000  0.0000
  o =  0.2233  v = -0.0000 -0.0000 -0.0000 -0.0000 -0.0000 -0.0000 -0.7710  0.5677 -0.0000 -0.2884     -0.0000 -0.0000 -0.0000 -0.0000 -0.0000 -0.0000 -0.0000 -0.0000 -0.0000 -0.0000
  o =  0.2581  v =  0.0000  0.0000  0.0000  0.0000  0.0000 -0.5428  0.0000  0.0000  0.8399 -0.0000      0.0000  0.0000  0.0000  0.0000  0.0000  0.0000  0.0000  0.0000  0.0000  0.0000
  o =  0.2581  v = -0.5428  0.0000  0.0000  0.8399 -0.0000 -0.0000 -0.0000 -0.0000 -0.0000 -0.0000      0.0000  0.0000  0.0000  0.0000  0.0000  0.0000  0.0000  0.0000  0.0000  0.0000
  o =  0.2632  v =  0.0000  0.4865  0.2330 -0.0000 -0.8420  0.0000  0.0000  0.0000  0.0000  0.0000      0.0000  0.0000  0.0000  0.0000  0.0000  0.0000  0.0000  0.0000  0.0000  0.0000
  o =  0.2632  v =  0.0000  0.0000  0.0000  0.0000  0.0000  0.0000  0.4865  0.2330 -0.0000 -0.8420      0.0000  0.0000  0.0000  0.0000  0.0000  0.0000  0.0000  0.0000  0.0000  0.0000
  o =  0.2691  v =  0.0000  0.0000  0.0000  0.0000  0.0000  0.0000  0.4108  0.7896 -0.0000  0.4559      0.0000  0.0000  0.0000  0.0000  0.0000  0.0000  0.0000  0.0000  0.0000  0.0000
  o =  0.2691  v =  0.0000  0.4108  0.7896 -0.0000  0.4559  0.0000  0.0000  0.0000  0.0000  0.0000      0.0000  0.0000  0.0000  0.0000  0.0000  0.0000  0.0000  0.0000  0.0000  0.0000
atom =   6  type =  2  l = 2

 onsite density matrix

spin component  1

  0.2330  0.0000 -0.0000 -0.0162 -0.0000
  0.0000  0.2405  0.0194  0.0000 -0.0078
 -0.0000  0.0194  0.2541  0.0000  0.0087
 -0.0162  0.0000  0.0000  0.2476 -0.0000
 -0.0000 -0.0078  0.0087 -0.0000  0.2611

spin component  2

  0.2330  0.0000 -0.0000 -0.0162 -0.0000
  0.0000  0.2405  0.0194  0.0000 -0.0078
 -0.0000  0.0194  0.2541  0.0000  0.0087
 -0.0162  0.0000  0.0000  0.2476 -0.0000
 -0.0000 -0.0078  0.0087 -0.0000  0.2611

 occupancies and eigenvectors

  o =  0.2226  v = -0.8399 -0.0000 -0.0000 -0.5428 -0.0000  0.0000  0.0000  0.0000  0.0000  0.0000     -0.0000 -0.0000 -0.0000 -0.0000 -0.0000 -0.0000 -0.0000 -0.0000 -0.0000 -0.0000
  o =  0.2226  v = -0.0000 -0.0000 -0.0000 -0.0000 -0.0000 -0.8399 -0.0000 -0.0000 -0.5428 -0.0000     -0.0000 -0.0000 -0.0000 -0.0000 -0.0000 -0.0000  0.0000  0.0000  0.0000  0.0000
  o =  0.2233  v = -0.0000 -0.7710  0.5677 -0.0000 -0.2884 -0.0000 -0.0000 -0.0000 -0.0000 -0.0000     -0.0000 -0.0000 -0.0000 -0.0000 -0.0000  0.0000  0.0000  0.0000  0.0000  0.0000
  o =  0.2233  v = -0.0000 -0.0000 -0.0000 -0.0000 -0.0000 -0.0000 -0.7710  0.5677 -0.0000 -0.2884     -0.0000 -0.0000 -0.0000 -0.0000 -0.0000 -0.0000 -0.0000 -0.0000 -0.0000 -0.0000
  o =  0.2581  v =  0.0000  0.0000  0.0000  0.0000  0.0000 -0.5428  0.0000  0.0000  0.8399  0.0000      0.0000  0.0000  0.0000  0.0000  0.0000  0.0000  0.0000  0.0000  0.0000  0.0000
  o =  0.2581  v = -0.5428  0.0000  0.0000  0.8399  0.0000 -0.0000 -0.0000 -0.0000 -0.0000 -0.0000      0.0000  0.0000  0.0000  0.0000  0.0000  0.0000  0.0000  0.0000  0.0000  0.0000
  o =  0.2632  v =  0.0000  0.4865  0.2330 -0.0000 -0.8420  0.0000  0.0000  0.0000  0.0000  0.0000      0.0000  0.0000  0.0000  0.0000  0.0000  0.0000  0.0000  0.0000  0.0000  0.0000
  o =  0.2632  v =  0.0000  0.0000  0.0000  0.0000  0.0000  0.0000  0.4865  0.2330 -0.0000 -0.8420      0.0000  0.0000  0.0000  0.0000  0.0000  0.0000  0.0000  0.0000  0.0000  0.0000
  o =  0.2691  v =  0.0000  0.0000  0.0000  0.0000  0.0000  0.0000  0.4108  0.7896 -0.0000  0.4559      0.0000  0.0000  0.0000  0.0000  0.0000  0.0000  0.0000  0.0000  0.0000  0.0000
  o =  0.2691  v =  0.0000  0.4108  0.7896 -0.0000  0.4559  0.0000  0.0000  0.0000  0.0000  0.0000      0.0000  0.0000  0.0000  0.0000  0.0000  0.0000  0.0000  0.0000  0.0000  0.0000
atom =   7  type =  3  l = 2

 onsite density matrix

spin component  1

  0.0109 -0.0000  0.0000  0.0024  0.0000
 -0.0000  0.0034  0.0014 -0.0000  0.0008
  0.0000  0.0014  0.0054 -0.0000  0.0016
  0.0024 -0.0000 -0.0000  0.0087 -0.0000
  0.0000  0.0008  0.0016 -0.0000  0.0036

spin component  2

  0.0109 -0.0000  0.0000  0.0024  0.0000
 -0.0000  0.0034  0.0014 -0.0000  0.0008
  0.0000  0.0014  0.0054 -0.0000  0.0016
  0.0024 -0.0000 -0.0000  0.0087 -0.0000
  0.0000  0.0008  0.0016 -0.0000  0.0036

 occupancies and eigenvectors

  o =  0.0027  v =  0.0000  0.5544  0.1806  0.0000 -0.8124  0.0000  0.0000  0.0000  0.0000  0.0000      0.0000  0.0000  0.0000  0.0000  0.0000  0.0000  0.0000  0.0000  0.0000  0.0000
  o =  0.0027  v =  0.0000  0.0000  0.0000  0.0000  0.0000  0.0000  0.5544  0.1806  0.0000 -0.8124      0.0000  0.0000  0.0000  0.0000  0.0000  0.0000  0.0000  0.0000  0.0000  0.0000
  o =  0.0027  v =  0.0000  0.7238 -0.5865 -0.0000  0.3635  0.0000  0.0000  0.0000  0.0000  0.0000      0.0000  0.0000  0.0000  0.0000  0.0000  0.0000  0.0000  0.0000  0.0000  0.0000
  o =  0.0027  v =  0.0000  0.0000  0.0000  0.0000  0.0000  0.0000  0.7238 -0.5865 -0.0000  0.3635      0.0000  0.0000  0.0000  0.0000  0.0000  0.0000  0.0000  0.0000  0.0000  0.0000
  o =  0.0071  v = -0.0000 -0.0000 -0.0000 -0.0000 -0.0000 -0.0000 -0.4108 -0.7896  0.0000 -0.4559     -0.0000 -0.0000 -0.0000 -0.0000 -0.0000 -0.0000 -0.0000 -0.0000 -0.0000 -0.0000
  o =  0.0071  v = -0.0000 -0.4108 -0.7896  0.0000 -0.4559 -0.0000 -0.0000 -0.0000 -0.0000 -0.0000     -0.0000 -0.0000 -0.0000 -0.0000 -0.0000 -0.0000 -0.0000 -0.0000 -0.0000 -0.0000
  o =  0.0071  v =  0.0000  0.0000  0.0000  0.0000  0.0000  0.5428  0.0000 -0.0000 -0.8399 -0.0000      0.0000  0.0000  0.0000  0.0000  0.0000  0.0000 -0.0000 -0.0000 -0.0000 -0.0000
  o =  0.0071  v =  0.5428  0.0000 -0.0000 -0.8399 -0.0000  0.0000  0.0000  0.0000  0.0000  0.0000      0.0000  0.0000  0.0000  0.0000  0.0000  0.0000  0.0000  0.0000  0.0000  0.0000
  o =  0.0124  v = -0.0000 -0.0000 -0.0000 -0.0000 -0.0000 -0.8399 -0.0000 -0.0000 -0.5428 -0.0000     -0.0000 -0.0000 -0.0000 -0.0000 -0.0000 -0.0000  0.0000  0.0000  0.0000  0.0000
  o =  0.0124  v = -0.8399 -0.0000 -0.0000 -0.5428 -0.0000 -0.0000 -0.0000 -0.0000 -0.0000 -0.0000     -0.0000 -0.0000 -0.0000 -0.0000 -0.0000 -0.0000 -0.0000 -0.0000 -0.0000 -0.0000
atom =   8  type =  3  l = 2

 onsite density matrix

spin component  1

  0.0109 -0.0000  0.0000  0.0024 -0.0000
 -0.0000  0.0034  0.0014 -0.0000  0.0008
  0.0000  0.0014  0.0054 -0.0000  0.0016
  0.0024 -0.0000 -0.0000  0.0087 -0.0000
 -0.0000  0.0008  0.0016 -0.0000  0.0036

spin component  2

  0.0109 -0.0000  0.0000  0.0024 -0.0000
 -0.0000  0.0034  0.0014 -0.0000  0.0008
  0.0000  0.0014  0.0054 -0.0000  0.0016
  0.0024 -0.0000 -0.0000  0.0087 -0.0000
 -0.0000  0.0008  0.0016 -0.0000  0.0036

 occupancies and eigenvectors

  o =  0.0027  v =  0.0000  0.5544  0.1806 -0.0000 -0.8124  0.0000  0.0000  0.0000  0.0000  0.0000      0.0000  0.0000  0.0000  0.0000  0.0000  0.0000  0.0000  0.0000  0.0000  0.0000
  o =  0.0027  v =  0.0000  0.0000  0.0000  0.0000  0.0000  0.0000  0.5544  0.1806 -0.0000 -0.8124      0.0000  0.0000  0.0000  0.0000  0.0000  0.0000  0.0000  0.0000  0.0000  0.0000
  o =  0.0027  v =  0.0000  0.7238 -0.5865  0.0000  0.3635  0.0000  0.0000  0.0000  0.0000  0.0000      0.0000  0.0000  0.0000  0.0000  0.0000  0.0000  0.0000  0.0000  0.0000  0.0000
  o =  0.0027  v =  0.0000  0.0000  0.0000  0.0000  0.0000  0.0000  0.7238 -0.5865  0.0000  0.3635      0.0000  0.0000  0.0000  0.0000  0.0000  0.0000  0.0000  0.0000  0.0000  0.0000
  o =  0.0071  v = -0.0000 -0.0000 -0.0000 -0.0000 -0.0000 -0.0000 -0.4108 -0.7896 -0.0000 -0.4559     -0.0000 -0.0000 -0.0000 -0.0000 -0.0000 -0.0000 -0.0000 -0.0000 -0.0000 -0.0000
  o =  0.0071  v = -0.0000 -0.4108 -0.7896 -0.0000 -0.4559 -0.0000 -0.0000 -0.0000 -0.0000 -0.0000     -0.0000 -0.0000 -0.0000 -0.0000 -0.0000 -0.0000 -0.0000 -0.0000 -0.0000 -0.0000
  o =  0.0071  v =  0.0000  0.0000  0.0000  0.0000  0.0000  0.5428  0.0000 -0.0000 -0.8399  0.0000      0.0000  0.0000  0.0000  0.0000  0.0000  0.0000 -0.0000 -0.0000 -0.0000 -0.0000
  o =  0.0071  v =  0.5428  0.0000 -0.0000 -0.8399  0.0000  0.0000  0.0000  0.0000  0.0000  0.0000      0.0000  0.0000  0.0000  0.0000  0.0000  0.0000  0.0000  0.0000  0.0000  0.0000
  o =  0.0124  v = -0.0000 -0.0000 -0.0000 -0.0000 -0.0000 -0.8399 -0.0000 -0.0000 -0.5428  0.0000     -0.0000 -0.0000 -0.0000 -0.0000 -0.0000 -0.0000  0.0000  0.0000  0.0000  0.0000
  o =  0.0124  v = -0.8399 -0.0000 -0.0000 -0.5428  0.0000 -0.0000 -0.0000 -0.0000 -0.0000 -0.0000     -0.0000 -0.0000 -0.0000 -0.0000  0.0000 -0.0000 -0.0000 -0.0000 -0.0000 -0.0000
     EDDAV:  cpu time      3.5769: real time      3.5758
       DOS:  cpu time      0.0004: real time      0.0004
    CHARGE:  cpu time      0.1226: real time      0.1226
    MIXING:  cpu time      0.0011: real time      0.0011
    --------------------------------------------
      LOOP:  cpu time      3.7445: real time      3.7433

 eigenvalue-minimisations  :  6120
 total energy-change (2. order) : 0.2662161E+02  (-0.1428353E+02)
 number of electron     136.0000052 magnetization 
 augmentation part       36.9028684 magnetization 

 Broyden mixing:
  rms(total) = 0.42120E+01    rms(broyden)= 0.42109E+01
  rms(prec ) = 0.72670E+01
  weight for this iteration     100.00

 eigenvalues of (default mixing * dielectric matrix)
  average eigenvalue GAMMA=   0.4795
  0.4795

 Free energy of the ion-electron system (eV)
  ---------------------------------------------------
  alpha Z        PSCENC =       350.81736993
  Ewald energy   TEWEN  =     -7020.04646784
  -Hartree energ DENC   =     -4209.44550277
  -exchange      EXHF   =         0.00000000
  -V(xc)+E(xc)   XCENC  =       313.62380603
  PAW double counting   =      7844.37170550    -8021.70049831
  entropy T*S    EENTRO =         0.00000000
  eigenvalues    EBANDS =     -1759.75752475
  atomic energy  EATOM  =     12358.86516222
  Solvation  Ediel_sol  =         0.00000000
  ---------------------------------------------------
  free energy    TOTEN  =      -143.27194999 eV

  energy without entropy =     -143.27194999  energy(sigma->0) =     -143.27194999


--------------------------------------------------------------------------------------------------------




--------------------------------------- Iteration      1(   7)  ---------------------------------------


    POTLOK:  cpu time      0.0377: real time      0.0377
    SETDIJ:  cpu time      0.0051: real time      0.0051
atom =   5  type =  2  l = 2

 onsite density matrix

spin component  1

  0.2980  0.0000 -0.0000 -0.0124  0.0000
  0.0000  0.3024  0.0171  0.0000 -0.0057
 -0.0000  0.0171  0.3155  0.0000  0.0078
 -0.0124  0.0000  0.0000  0.3092 -0.0000
  0.0000 -0.0057  0.0078 -0.0000  0.3205

spin component  2

  0.2980  0.0000 -0.0000 -0.0124  0.0000
  0.0000  0.3024  0.0171  0.0000 -0.0057
 -0.0000  0.0171  0.3155  0.0000  0.0078
 -0.0124  0.0000  0.0000  0.3092 -0.0000
  0.0000 -0.0057  0.0078 -0.0000  0.3205

 occupancies and eigenvectors

  o =  0.2881  v = -0.0000  0.7800 -0.5632  0.0000  0.2726 -0.0000 -0.0000 -0.0000 -0.0000 -0.0000     -0.0000 -0.0000 -0.0000 -0.0000 -0.0000 -0.0000 -0.0000 -0.0000 -0.0000 -0.0000
  o =  0.2881  v = -0.0000 -0.0000 -0.0000 -0.0000 -0.0000 -0.0000  0.7800 -0.5632  0.0000  0.2726     -0.0000 -0.0000 -0.0000 -0.0000 -0.0000 -0.0000 -0.0000 -0.0000 -0.0000 -0.0000
  o =  0.2900  v = -0.0000 -0.0000 -0.0000 -0.0000 -0.0000 -0.8399 -0.0000 -0.0000 -0.5428  0.0000     -0.0000 -0.0000 -0.0000 -0.0000 -0.0000 -0.0000  0.0000  0.0000  0.0000  0.0000
  o =  0.2900  v = -0.8399 -0.0000 -0.0000 -0.5428  0.0000  0.0000  0.0000  0.0000  0.0000  0.0000     -0.0000 -0.0000 -0.0000 -0.0000 -0.0000 -0.0000 -0.0000 -0.0000 -0.0000 -0.0000
  o =  0.3172  v = -0.5428  0.0000  0.0000  0.8399 -0.0000 -0.0000 -0.0000 -0.0000 -0.0000 -0.0000      0.0000  0.0000  0.0000  0.0000  0.0000  0.0000  0.0000  0.0000  0.0000  0.0000
  o =  0.3172  v =  0.0000  0.0000  0.0000  0.0000  0.0000 -0.5428  0.0000  0.0000  0.8399 -0.0000      0.0000  0.0000  0.0000  0.0000  0.0000  0.0000  0.0000  0.0000  0.0000  0.0000
  o =  0.3215  v =  0.0000  0.0000  0.0000  0.0000  0.0000  0.0000 -0.4720 -0.2436  0.0000  0.8473      0.0000  0.0000  0.0000  0.0000  0.0000  0.0000  0.0000  0.0000  0.0000  0.0000
  o =  0.3215  v =  0.0000 -0.4720 -0.2436  0.0000  0.8473  0.0000  0.0000  0.0000  0.0000  0.0000      0.0000  0.0000  0.0000  0.0000  0.0000  0.0000  0.0000  0.0000  0.0000  0.0000
  o =  0.3289  v =  0.0000  0.4108  0.7896 -0.0000  0.4559  0.0000  0.0000  0.0000  0.0000  0.0000      0.0000  0.0000  0.0000  0.0000  0.0000  0.0000  0.0000  0.0000  0.0000  0.0000
  o =  0.3289  v =  0.0000  0.0000  0.0000  0.0000  0.0000  0.0000  0.4108  0.7896 -0.0000  0.4559      0.0000  0.0000  0.0000  0.0000  0.0000  0.0000  0.0000  0.0000  0.0000  0.0000
atom =   6  type =  2  l = 2

 onsite density matrix

spin component  1

  0.2980  0.0000 -0.0000 -0.0124 -0.0000
  0.0000  0.3024  0.0171 -0.0000 -0.0057
 -0.0000  0.0171  0.3155  0.0000  0.0078
 -0.0124 -0.0000  0.0000  0.3092 -0.0000
 -0.0000 -0.0057  0.0078 -0.0000  0.3205

spin component  2

  0.2980  0.0000 -0.0000 -0.0124 -0.0000
  0.0000  0.3024  0.0171 -0.0000 -0.0057
 -0.0000  0.0171  0.3155  0.0000  0.0078
 -0.0124 -0.0000  0.0000  0.3092 -0.0000
 -0.0000 -0.0057  0.0078 -0.0000  0.3205

 occupancies and eigenvectors

  o =  0.2881  v =  0.0000 -0.7800  0.5632  0.0000 -0.2726  0.0000  0.0000  0.0000  0.0000  0.0000      0.0000  0.0000  0.0000  0.0000  0.0000  0.0000  0.0000  0.0000  0.0000  0.0000
  o =  0.2881  v =  0.0000  0.0000  0.0000  0.0000  0.0000  0.0000 -0.7800  0.5632  0.0000 -0.2726      0.0000  0.0000  0.0000  0.0000  0.0000  0.0000  0.0000  0.0000  0.0000  0.0000
  o =  0.2900  v =  0.8399  0.0000 -0.0000  0.5428  0.0000  0.0000  0.0000  0.0000  0.0000  0.0000      0.0000  0.0000  0.0000  0.0000  0.0000  0.0000  0.0000  0.0000  0.0000  0.0000
  o =  0.2900  v =  0.0000  0.0000  0.0000  0.0000  0.0000  0.8399  0.0000 -0.0000  0.5428  0.0000      0.0000  0.0000  0.0000  0.0000  0.0000  0.0000  0.0000  0.0000  0.0000  0.0000
  o =  0.3172  v =  0.0000  0.0000  0.0000  0.0000  0.0000 -0.5428 -0.0000 -0.0000  0.8399  0.0000      0.0000  0.0000  0.0000  0.0000  0.0000  0.0000  0.0000  0.0000  0.0000  0.0000
  o =  0.3172  v = -0.5428 -0.0000 -0.0000  0.8399  0.0000  0.0000  0.0000  0.0000  0.0000  0.0000      0.0000  0.0000  0.0000  0.0000  0.0000  0.0000  0.0000  0.0000  0.0000  0.0000
  o =  0.3215  v =  0.0000 -0.4720 -0.2436 -0.0000  0.8473  0.0000  0.0000  0.0000  0.0000  0.0000      0.0000  0.0000  0.0000  0.0000  0.0000  0.0000  0.0000  0.0000  0.0000  0.0000
  o =  0.3215  v =  0.0000  0.0000  0.0000  0.0000  0.0000  0.0000 -0.4720 -0.2436 -0.0000  0.8473      0.0000  0.0000  0.0000  0.0000  0.0000  0.0000  0.0000  0.0000  0.0000  0.0000
  o =  0.3289  v =  0.0000  0.0000  0.0000  0.0000  0.0000 -0.0000  0.4108  0.7896  0.0000  0.4559      0.0000  0.0000  0.0000  0.0000  0.0000  0.0000  0.0000  0.0000  0.0000  0.0000
  o =  0.3289  v = -0.0000  0.4108  0.7896  0.0000  0.4559  0.0000  0.0000  0.0000  0.0000  0.0000      0.0000  0.0000  0.0000  0.0000  0.0000  0.0000  0.0000  0.0000  0.0000  0.0000
atom =   7  type =  3  l = 2

 onsite density matrix

spin component  1

  0.0162  0.0000 -0.0000  0.0041  0.0000
  0.0000  0.0053  0.0016 -0.0000  0.0012
 -0.0000  0.0016  0.0078 -0.0000  0.0018
  0.0041 -0.0000 -0.0000  0.0125 -0.0000
  0.0000  0.0012  0.0018 -0.0000  0.0055

spin component  2

  0.0162  0.0000 -0.0000  0.0041  0.0000
  0.0000  0.0053  0.0016 -0.0000  0.0012
 -0.0000  0.0016  0.0078 -0.0000  0.0018
  0.0041 -0.0000 -0.0000  0.0125 -0.0000
  0.0000  0.0012  0.0018 -0.0000  0.0055

 occupancies and eigenvectors

  o =  0.0042  v = -0.0000 -0.0000 -0.0000 -0.0000 -0.0000 -0.0000 -0.6789 -0.0688 -0.0000  0.7310     -0.0000 -0.0000 -0.0000 -0.0000 -0.0000 -0.0000 -0.0000 -0.0000 -0.0000 -0.0000
  o =  0.0042  v = -0.0000 -0.6789 -0.0688 -0.0000  0.7310 -0.0000 -0.0000 -0.0000 -0.0000 -0.0000     -0.0000 -0.0000 -0.0000 -0.0000 -0.0000 -0.0000 -0.0000 -0.0000 -0.0000 -0.0000
  o =  0.0048  v =  0.0000 -0.6085  0.6098  0.0000 -0.5078  0.0000  0.0000  0.0000  0.0000  0.0000      0.0000  0.0000  0.0000  0.0000  0.0000  0.0000  0.0000  0.0000  0.0000  0.0000
  o =  0.0048  v =  0.0000  0.0000  0.0000  0.0000  0.0000  0.0000 -0.6085  0.6098  0.0000 -0.5078      0.0000  0.0000  0.0000  0.0000  0.0000  0.0000  0.0000  0.0000  0.0000  0.0000
  o =  0.0097  v =  0.0000 -0.4108 -0.7896  0.0000 -0.4559  0.0000  0.0000  0.0000  0.0000  0.0000      0.0000  0.0000  0.0000  0.0000  0.0000  0.0000  0.0000  0.0000  0.0000  0.0000
  o =  0.0097  v =  0.0000  0.0000  0.0000  0.0000  0.0000  0.0000 -0.4108 -0.7896  0.0000 -0.4559      0.0000  0.0000  0.0000  0.0000  0.0000  0.0000  0.0000  0.0000  0.0000  0.0000
  o =  0.0098  v = -0.0000 -0.0000 -0.0000 -0.0000 -0.0000 -0.5428 -0.0000 -0.0000  0.8399  0.0000     -0.0000 -0.0000 -0.0000 -0.0000 -0.0000 -0.0000  0.0000  0.0000  0.0000  0.0000
  o =  0.0098  v = -0.5428 -0.0000 -0.0000  0.8399  0.0000  0.0000  0.0000  0.0000  0.0000  0.0000     -0.0000 -0.0000 -0.0000 -0.0000 -0.0000 -0.0000 -0.0000 -0.0000 -0.0000 -0.0000
  o =  0.0188  v = -0.8399  0.0000  0.0000 -0.5428 -0.0000 -0.0000 -0.0000 -0.0000 -0.0000 -0.0000      0.0000  0.0000  0.0000  0.0000  0.0000  0.0000  0.0000  0.0000  0.0000  0.0000
  o =  0.0188  v =  0.0000  0.0000  0.0000  0.0000  0.0000 -0.8399  0.0000  0.0000 -0.5428 -0.0000      0.0000  0.0000  0.0000  0.0000  0.0000  0.0000  0.0000  0.0000  0.0000  0.0000
atom =   8  type =  3  l = 2

 onsite density matrix

spin component  1

  0.0162 -0.0000  0.0000  0.0041 -0.0000
 -0.0000  0.0053  0.0016  0.0000  0.0012
  0.0000  0.0016  0.0078 -0.0000  0.0018
  0.0041  0.0000 -0.0000  0.0125 -0.0000
 -0.0000  0.0012  0.0018 -0.0000  0.0055

spin component  2

[...]
     93      12.1571      0.00000
     94      12.5710      0.00000
     95      12.7981      0.00000
     96      12.9806      0.00000
     97      13.5854      0.00000
     98      13.9191      0.00000
     99      14.1295      0.00000
    100      14.3697      0.00000
    101      14.8924      0.00000
    102      14.9233      0.00000

 k-point    18 :       0.5000   -0.2500    0.2500
  band No.  band energies     occupation 
      1     -37.4623      2.00000
      2     -37.4621      2.00000
      3     -37.4579      2.00000
      4     -37.4577      2.00000
      5     -37.4079      2.00000
      6     -37.4078      2.00000
      7     -37.4046      2.00000
      8     -37.4045      2.00000
      9     -37.4043      2.00000
     10     -37.4041      2.00000
     11     -37.3909      2.00000
     12     -37.3907      2.00000
     13     -36.3569      2.00000
     14     -36.3566      2.00000
     15     -36.2981      2.00000
     16     -36.2978      2.00000
     17     -36.2778      2.00000
     18     -36.2775      2.00000
     19     -15.1778      2.00000
     20     -15.1776      2.00000
     21     -14.4404      2.00000
     22     -14.4403      2.00000
     23     -14.3251      2.00000
     24     -14.3249      2.00000
     25     -14.3137      2.00000
     26     -14.3135      2.00000
     27     -13.9596      2.00000
     28     -13.9595      2.00000
     29     -13.9518      2.00000
     30     -13.9516      2.00000
     31      -6.9030      2.00000
     32      -6.9028      2.00000
     33      -2.0460      2.00000
     34      -2.0459      2.00000
     35      -1.8526      2.00000
     36      -1.8526      2.00000
     37      -1.7716      2.00000
     38      -1.7715      2.00000
     39      -1.1875      2.00000
     40      -1.1875      2.00000
     41      -1.0777      2.00000
     42      -1.0776      2.00000
     43      -0.9224      2.00000
     44      -0.9223      2.00000
     45      -0.7334      2.00000
     46      -0.7333      2.00000
     47      -0.5222      2.00000
     48      -0.5222      2.00000
     49      -0.3764      2.00000
     50      -0.3764      2.00000
     51      -0.2447      2.00000
     52      -0.2447      2.00000
     53       0.1671      2.00000
     54       0.1671      2.00000
     55       0.2646      2.00000
     56       0.2647      2.00000
     57       0.7031      2.00000
     58       0.7031      2.00000
     59       0.7698      2.00000
     60       0.7698      2.00000
     61       1.0504      2.00000
     62       1.0505      2.00000
     63       1.2278      2.00000
     64       1.2279      2.00000
     65       1.2434      2.00000
     66       1.2435      2.00000
     67       1.4156      2.00000
     68       1.4157      2.00000
     69       5.5575      0.00000
     70       5.5576      0.00000
     71       5.7024      0.00000
     72       5.7025      0.00000
     73       6.1804      0.00000
     74       6.1805      0.00000
     75       6.5547      0.00000
     76       6.5548      0.00000
     77       6.7088      0.00000
     78       6.7090      0.00000
     79       6.7135      0.00000
     80       6.7137      0.00000
     81       7.2221      0.00000
     82       7.2222      0.00000
     83       7.2628      0.00000
     84       7.2630      0.00000
     85       9.7675      0.00000
     86       9.7677      0.00000
     87      11.1360      0.00000
     88      11.1362      0.00000
     89      11.9202      0.00000
     90      11.9202      0.00000
     91      12.2208      0.00000
     92      12.2209      0.00000
     93      12.4517      0.00000
     94      12.4518      0.00000
     95      12.6499      0.00000
     96      12.6500      0.00000
     97      14.2401      0.00000
     98      14.2402      0.00000
     99      14.5561      0.00000
    100      14.5612      0.00000
    101      14.5983      0.00000
    102      14.6202      0.00000

 k-point    19 :       0.0000    0.5000    0.5000
  band No.  band energies     occupation 
      1     -37.4629      2.00000
      2     -37.4615      2.00000
      3     -37.4586      2.00000
      4     -37.4570      2.00000
      5     -37.4092      2.00000
      6     -37.4062      2.00000
      7     -37.4060      2.00000
      8     -37.4052      2.00000
      9     -37.4041      2.00000
     10     -37.4020      2.00000
     11     -37.3919      2.00000
     12     -37.3900      2.00000
     13     -36.3570      2.00000
     14     -36.3565      2.00000
     15     -36.2982      2.00000
     16     -36.2979      2.00000
     17     -36.2777      2.00000
     18     -36.2774      2.00000
     19     -15.7510      2.00000
     20     -14.6974      2.00000
     21     -14.6949      2.00000
     22     -14.6414      2.00000
     23     -14.4325      2.00000
     24     -14.0741      2.00000
     25     -14.0548      2.00000
     26     -14.0371      2.00000
     27     -14.0259      2.00000
     28     -13.9298      2.00000
     29     -13.9010      2.00000
     30     -13.8705      2.00000
     31      -7.8223      2.00000
     32      -6.2612      2.00000
     33      -2.4378      2.00000
     34      -2.1534      2.00000
     35      -1.9850      2.00000
     36      -1.8451      2.00000
     37      -1.7213      2.00000
     38      -1.5146      2.00000
     39      -1.3560      2.00000
     40      -1.3456      2.00000
     41      -1.3008      2.00000
     42      -1.2496      2.00000
     43      -1.1339      2.00000
     44      -0.9667      2.00000
     45      -0.9170      2.00000
     46      -0.6059      2.00000
     47      -0.5805      2.00000
     48      -0.5448      2.00000
     49      -0.4921      2.00000
     50      -0.4533      2.00000
     51      -0.3366      2.00000
     52       0.1514      2.00000
     53       0.3190      2.00000
     54       0.3726      2.00000
     55       0.4374      2.00000
     56       0.4525      2.00000
     57       0.5399      2.00000
     58       0.6135      2.00000
     59       0.6411      2.00000
     60       1.1897      2.00000
     61       1.2432      2.00000
     62       1.2831      2.00000
     63       1.4384      2.00000
     64       1.4398      2.00000
     65       1.4737      2.00000
     66       1.5685      2.00000
     67       1.5695      2.00000
     68       1.9339      2.00000
     69       5.3623      0.00000
     70       5.3818      0.00000
     71       5.4453      0.00000
     72       5.5527      0.00000
     73       5.8123      0.00000
     74       5.9114      0.00000
     75       6.0688      0.00000
     76       6.5139      0.00000
     77       6.5623      0.00000
     78       6.6867      0.00000
     79       6.7706      0.00000
     80       6.7913      0.00000
     81       6.8186      0.00000
     82       7.0536      0.00000
     83       7.6882      0.00000
     84       8.3336      0.00000
     85       9.3750      0.00000
     86      10.0918      0.00000
     87      10.1984      0.00000
     88      11.2010      0.00000
     89      11.5434      0.00000
     90      11.8527      0.00000
     91      12.0385      0.00000
     92      12.0539      0.00000
     93      12.3171      0.00000
     94      12.6363      0.00000
     95      12.9433      0.00000
     96      13.1124      0.00000
     97      13.2415      0.00000
     98      13.2832      0.00000
     99      13.9854      0.00000
    100      14.2223      0.00000
    101      14.3398      0.00000
    102      14.6536      0.00000

 k-point    20 :       0.2500    0.5000    0.5000
  band No.  band energies     occupation 
      1     -37.4627      2.00000
      2     -37.4617      2.00000
      3     -37.4584      2.00000
      4     -37.4572      2.00000
      5     -37.4088      2.00000
      6     -37.4069      2.00000
      7     -37.4055      2.00000
      8     -37.4048      2.00000
      9     -37.4042      2.00000
     10     -37.4027      2.00000
     11     -37.3915      2.00000
     12     -37.3902      2.00000
     13     -36.3570      2.00000
     14     -36.3565      2.00000
     15     -36.2981      2.00000
     16     -36.2979      2.00000
     17     -36.2778      2.00000
     18     -36.2775      2.00000
     19     -15.5914      2.00000
     20     -14.6853      2.00000
     21     -14.5991      2.00000
     22     -14.5922      2.00000
     23     -14.5644      2.00000
     24     -14.1789      2.00000
     25     -14.1689      2.00000
     26     -14.0415      2.00000
     27     -14.0106      2.00000
     28     -13.9960      2.00000
     29     -13.9143      2.00000
     30     -13.8838      2.00000
     31      -7.5172      2.00000
     32      -6.4221      2.00000
     33      -2.1120      2.00000
     34      -2.0611      2.00000
     35      -1.9449      2.00000
     36      -1.8161      2.00000
     37      -1.7343      2.00000
     38      -1.7312      2.00000
     39      -1.5779      2.00000
     40      -1.3207      2.00000
     41      -1.2765      2.00000
     42      -1.0899      2.00000
     43      -0.8878      2.00000
     44      -0.8542      2.00000
     45      -0.8024      2.00000
     46      -0.6216      2.00000
     47      -0.5825      2.00000
     48      -0.5728      2.00000
     49      -0.5133      2.00000
     50      -0.3387      2.00000
     51      -0.2411      2.00000
     52      -0.0845      2.00000
     53       0.1755      2.00000
     54       0.2195      2.00000
     55       0.2945      2.00000
     56       0.6532      2.00000
     57       0.6566      2.00000
     58       0.6644      2.00000
     59       0.7548      2.00000
     60       0.7726      2.00000
     61       0.9064      2.00000
     62       1.2932      2.00000
     63       1.3086      2.00000
     64       1.3707      2.00000
     65       1.4256      2.00000
     66       1.4417      2.00000
     67       1.4564      2.00000
     68       1.6801      2.00000
     69       5.5281      0.00000
     70       5.5617      0.00000
     71       5.6082      0.00000
     72       5.6343      0.00000
     73       6.1016      0.00000
     74       6.1966      0.00000
     75       6.2934      0.00000
     76       6.4051      0.00000
     77       6.4410      0.00000
     78       6.6432      0.00000
     79       6.7128      0.00000
     80       6.7950      0.00000
     81       6.9072      0.00000
     82       6.9833      0.00000
     83       7.4477      0.00000
     84       8.0534      0.00000
     85       9.3756      0.00000
     86      10.1277      0.00000
     87      10.5821      0.00000
     88      10.9840      0.00000
     89      11.7642      0.00000
     90      12.0093      0.00000
     91      12.0257      0.00000
     92      12.0959      0.00000
     93      12.1390      0.00000
     94      12.4521      0.00000
     95      13.0185      0.00000
     96      13.1494      0.00000
     97      13.4330      0.00000
     98      13.8657      0.00000
     99      14.1744      0.00000
    100      14.2043      0.00000
    101      14.8982      0.00000
    102      14.9688      0.00000

 k-point    21 :       0.5000    0.5000    0.5000
  band No.  band energies     occupation 
      1     -37.4623      2.00000
      2     -37.4621      2.00000
      3     -37.4579      2.00000
      4     -37.4577      2.00000
      5     -37.4079      2.00000
      6     -37.4078      2.00000
      7     -37.4046      2.00000
      8     -37.4045      2.00000
      9     -37.4043      2.00000
     10     -37.4041      2.00000
     11     -37.3909      2.00000
     12     -37.3907      2.00000
     13     -36.3569      2.00000
     14     -36.3566      2.00000
     15     -36.2981      2.00000
     16     -36.2978      2.00000
     17     -36.2778      2.00000
     18     -36.2775      2.00000
     19     -15.1687      2.00000
     20     -15.1685      2.00000
     21     -14.4107      2.00000
     22     -14.4105      2.00000
     23     -14.3705      2.00000
     24     -14.3703      2.00000
     25     -14.3299      2.00000
     26     -14.3297      2.00000
     27     -13.9463      2.00000
     28     -13.9462      2.00000
     29     -13.9435      2.00000
     30     -13.9434      2.00000
     31      -6.8992      2.00000
     32      -6.8989      2.00000
     33      -2.0430      2.00000
     34      -2.0429      2.00000
     35      -1.7383      2.00000
     36      -1.7383      2.00000
     37      -1.7351      2.00000
     38      -1.7351      2.00000
     39      -1.3283      2.00000
     40      -1.3283      2.00000
     41      -1.1543      2.00000
     42      -1.1541      2.00000
     43      -0.7309      2.00000
     44      -0.7308      2.00000
     45      -0.6408      2.00000
     46      -0.6407      2.00000
     47      -0.5389      2.00000
     48      -0.5389      2.00000
     49      -0.4416      2.00000
     50      -0.4415      2.00000
     51      -0.4063      2.00000
     52      -0.4062      2.00000
     53       0.0654      2.00000
     54       0.0655      2.00000
     55       0.0905      2.00000
     56       0.0905      2.00000
     57       0.8110      2.00000
     58       0.8110      2.00000
     59       0.8883      2.00000
     60       0.8883      2.00000
     61       1.0757      2.00000
     62       1.0758      2.00000
     63       1.2602      2.00000
     64       1.2603      2.00000
     65       1.2948      2.00000
     66       1.2948      2.00000
     67       1.3760      2.00000
     68       1.3762      2.00000
     69       5.5304      0.00000
     70       5.5306      0.00000
     71       5.7469      0.00000
     72       5.7470      0.00000
     73       6.2631      0.00000
     74       6.2632      0.00000
     75       6.5224      0.00000
     76       6.5225      0.00000
     77       6.6409      0.00000
     78       6.6411      0.00000
     79       6.7214      0.00000
     80       6.7216      0.00000
     81       7.2510      0.00000
     82       7.2513      0.00000
     83       7.3296      0.00000
     84       7.3296      0.00000
     85       9.3985      0.00000
     86       9.3987      0.00000
     87      11.1152      0.00000
     88      11.1153      0.00000
     89      11.9170      0.00000
     90      11.9171      0.00000
     91      12.2051      0.00000
     92      12.2053      0.00000
     93      12.5585      0.00000
     94      12.5586      0.00000
     95      12.8766      0.00000
     96      12.8767      0.00000
     97      14.4550      0.00000
     98      14.4564      0.00000
     99      14.5550      0.00000
    100      14.6029      0.00000
    101      14.7523      0.00000
    102      14.7781      0.00000


--------------------------------------------------------------------------------------------------------


 soft charge-density along one line, spin component           1
         0         1         2         3         4         5         6         7         8         9
 total charge-density along one line

 pseudopotential strength for first ion, spin component:           1
-39.333   0.005  -0.000  30.448  -0.005   0.000   0.001  -0.000
  0.005 -39.378  -0.000  -0.005  30.488   0.000  -0.011   0.003
 -0.000  -0.000 -39.343   0.000   0.000  30.456   0.000  -0.000
 30.448  -0.005   0.000 -20.302   0.004  -0.000  -0.000   0.000
 -0.005  30.488   0.000   0.004 -20.335  -0.000   0.007  -0.003
  0.000   0.000  30.456  -0.000  -0.000 -20.309  -0.000   0.000
  0.001  -0.011   0.000  -0.000   0.007  -0.000   3.577  -0.026
 -0.000   0.003  -0.000   0.000  -0.003   0.000  -0.026  -0.016
 total augmentation occupancy for first ion, spin component:           1
  2.103   0.005   0.000   0.153   0.008   0.000   0.001   0.003
  0.005   2.085   0.000   0.008   0.122   0.000   0.014  -0.046
  0.000   0.000   2.092  -0.000  -0.000   0.137   0.000  -0.000
  0.153   0.008  -0.000   0.225   0.012  -0.000   0.001   0.001
  0.008   0.122  -0.000   0.012   0.177  -0.000   0.034  -0.005
  0.000   0.000   0.137  -0.000   0.000   0.201   0.000  -0.000
  0.001   0.014   0.000   0.001   0.034   0.000   0.691  -0.092
  0.003  -0.046  -0.000   0.001  -0.005  -0.000  -0.092   0.016


------------------------ aborting loop because EDIFF is reached ----------------------------------------





 total charge     

# of ion       s       p       d       tot
------------------------------------------
    1        0.134   6.122   0.000   6.256
    2        0.134   6.122   0.000   6.256
    3        0.134   6.122   0.000   6.256
    4        0.134   6.122   0.000   6.256
    5        0.428   6.467   3.046   9.941
    6        0.428   6.467   3.046   9.941
    7        1.787   1.457   0.224   3.469
    8        1.787   1.457   0.224   3.469
    9        1.577   3.447   0.000   5.024
   10        1.577   3.447   0.000   5.024
   11        1.577   3.447   0.000   5.024
   12        1.577   3.447   0.000   5.024
   13        1.568   3.489   0.000   5.057
   14        1.568   3.489   0.000   5.057
   15        1.568   3.489   0.000   5.057
   16        1.568   3.489   0.000   5.057
   17        1.567   3.452   0.000   5.019
   18        1.567   3.452   0.000   5.019
   19        1.567   3.452   0.000   5.019
   20        1.567   3.452   0.000   5.019
--------------------------------------------------
tot         23.815  81.887   6.541 112.242



--------------------------------------------------------------------------------------------------------



  FREE ENERGIE OF THE ION-ELECTRON SYSTEM (eV)
  ---------------------------------------------------
  free  energy   TOTEN  =      -130.40703524 eV

  energy  without entropy=     -130.40703524  energy(sigma->0) =     -130.40703524



--------------------------------------------------------------------------------------------------------




--------------------------------------------------------------------------------------------------------


     LOOP+:  cpu time     45.9615: real time     45.9628
    4ORBIT:  cpu time      0.0000: real time      0.0000



 total charge     

# of ion       s       p       d       tot
------------------------------------------
    1        0.134   6.122   0.000   6.256
    2        0.134   6.122   0.000   6.256
    3        0.134   6.122   0.000   6.256
    4        0.134   6.122   0.000   6.256
    5        0.428   6.467   3.046   9.941
    6        0.428   6.467   3.046   9.941
    7        1.787   1.457   0.224   3.469
    8        1.787   1.457   0.224   3.469
    9        1.577   3.447   0.000   5.024
   10        1.577   3.447   0.000   5.024
   11        1.577   3.447   0.000   5.024
   12        1.577   3.447   0.000   5.024
   13        1.568   3.489   0.000   5.057
   14        1.568   3.489   0.000   5.057
   15        1.568   3.489   0.000   5.057
   16        1.568   3.489   0.000   5.057
   17        1.567   3.452   0.000   5.019
   18        1.567   3.452   0.000   5.019
   19        1.567   3.452   0.000   5.019
   20        1.567   3.452   0.000   5.019
--------------------------------------------------
tot         23.815  81.887   6.541 112.242


 total amount of memory used by VASP MPI-rank0    72375. kBytes
=======================================================================

   base      :      30000. kBytes
   nonl-proj :      23466. kBytes
   fftplans  :       2676. kBytes
   grid      :       5052. kBytes
   one-center:         77. kBytes
   wavefun   :      11104. kBytes

  
  
 General timing and accounting informations for this job:
 ========================================================
  
                  Total CPU time used (sec):       48.929
                            User time (sec):       48.594
                          System time (sec):        0.335
                         Elapsed time (sec):       49.357
  
                   Maximum memory used (kb):      217816.
                   Average memory used (kb):           0.
  
                          Minor page faults:        47028
                          Major page faults:           16
                 Voluntary context switches:         2552
