
         
 *******************************************************************************
 *                                                                             *
 *                                CRYSTAL09                                    *
 *                              public : 1.0                                   *
 *                      March 5th, 2010 - sequential executable                *
 *                                                                             *
 *                                                                             *
 *                                                                             *
 *                              MAIN AUTHORS                                   *
 *                                                                             *
 *    R. DOVESI(1,10), V.R. SAUNDERS(2), C. ROETTI(1,10), R. ORLANDO (1,3),    *
 *  C.M. ZICOVICH-WILSON(1,4), F. PASCALE(5), B. CIVALLERI(1,10), K. DOLL(6),  *
 *       N.M. HARRISON(2,7), I. J. BUSH(2), Ph. D'ARCO(8), M. LLUNELL(9)       *
 *                                                                             *
 * (1) THEORETICAL CHEMISTRY GROUP - UNIVERSITA' DI TORINO - TORINO (ITALY)    *
 *      http://www.crystal.unito.it                                            *
 * (2) COMPUTATIONAL SCIENCE & ENGINEERING DEPARTMENT - CCLRC DARESBURY (UK)   *
 *     http://www.cse.clrc.ac.uk/cmg/CRYSTAL/                                  *
 * (3) UNIVERSITA' DEL PIEMONTE ORIENTALE - ALESSANDRIA (ITALY)                *
 * (4) UNIVERSIDAD AUTONOMA DEL ESTADO DE MORELOS - CUERNAVACA (MEXICO)        *
 * (5) UNIVERSITE' HENRI POINCARE' - NANCY (FRANCE)                            *
 * (6) MPI FUER FESTKOERPERFORSCHUNG - STUTTGART (GERMANY)                     *
 * (7) IMPERIAL COLLEGE - LONDON (UK)                                          *
 * (8) UNIVERSITE' PIERRE ET MARIE CURIE - PARIS (FRANCE)                      *
 * (9) UNIVERSIDAD DE BARCELONA - BARCELONA (SPAIN)                            *
 *(10) NIS - NANOSTRUCTURED INTERFACES AND SURFACES - TORINO (ITALY)           *
 *     http://www.crystal.unito.it                                             *
 *******************************************************************************
 EEEEEEEEEE STARTING  DATE 18 08 2013 TIME 14:16:13.1
 d-metal oxides 4 school 2013                                                    

 MOLECULAR CALCULATION
 POINT  GROUP  N. 15                  :  MM2    OR  C2V  
 CORRESPONDING SPACE GROUP            :  P M M 2         


 NUMBER OF IRREDUCIBLE ATOMS IN THE CONVENTIONAL CELL:    2

 INPUT COORDINATES

 ATOM AT. N.              COORDINATES
   1   8     0.000000000000E+00  0.000000000000E+00  0.000000000000E+00
   2   1     7.646155496410E-01  0.000000000000E+00  5.496191713470E-01

 COORDINATES OF THE EQUIVALENT ATOMS (ANGSTROMS)

 N. ATOM EQUIV AT. N.          X                  Y                  Z

   1   1   1    8 O     0.00000000000E+00  0.00000000000E+00  0.00000000000E+00

   2   2   1    1 H     7.64615549641E-01  0.00000000000E+00  5.49619171347E-01
   3   2   2    1 H    -7.64615549641E-01  0.00000000000E+00  5.49619171347E-01

 NUMBER OF SYMMETRY OPERATORS         :    4
 *******************************************************************************
 * GEOMETRY EDITING - INPUT COORDINATES ARE GIVEN IN ANGSTROM         
 *******************************************************************************

 GEOMETRY NOW FULLY CONSISTENT WITH THE GROUP
 INFORMATION **** TOLDEG **** MODIFY CONVERGENCE CRITERIUM FOR RMS GRADIENT  3.000000E-04
 INFORMATION **** TOLDEX ****  CONVERGENCE CRITERIUM FOR RMS DISPLACEMENT MODIFIED  3.000000E-04
 INFORMATION **** MAXCYCLE ****   MAXIMUM NUMBER OF OPTIMIZATION CYCLES         100

 IMPORTANT INFORMATION:
 THE COORDINATE SYSTEM ADOPTED IN THE OPTIMIZATION HAS NOT IN
 GENERAL HOMOGENEOUS UNITS. FOR THIS REASON THE GRADIENT AND 
 HESSIAN MATRIX IN TERMS OF THIS SYSTEM ARE GIVEN WITHOUT
 UNITS. FOR MORE DETAILS SEE THE MANUAL.

 *******************************************************************************
 ATOMIC POSITIONS OPTIMIZATION CONTROL

 INITIAL TRUST RADIUS         0.50000 MAXIMUM TRUST RADIUS               4.00000
 MAXIMUM GRADIENT COMPONENT   0.00015 MAXIMUM DISPLACEMENT COMPONENT     0.00045
 R.M.S. OF GRADIENT COMPONENT 0.00010 R.M.S. OF DISPLACEMENT COMPONENTS  0.00030
 THRESHOLD ON ENERGY CHANGE 0.100E-06 EXTRAPOLATING POLYNOMIAL ORDER           2
 MAXIMUM ALLOWED NUMBER OF STEPS  100 SORTING OF ENERGY POINTS:               NO
 ANALYTICAL  GRADIENT                 HESSIAN UPDATING                      BFGS
 STEP SIZE NUMERICAL GRADIENT 0.00100
 INITIAL HESSIAN MATRIX: SCHLEGEL MODEL 2
 *******************************************************************************


 GEOMETRY FOR WAVE FUNCTION - DIMENSIONALITY OF THE SYSTEM    0
 (NON PERIODIC DIRECTION: LATTICE PARAMETER FORMALLY SET TO 500)
 *******************************************************************************
 ATOMS IN THE ASYMMETRIC UNIT    2 - ATOMS IN THE UNIT CELL:    3
     ATOM          X(ANGSTROM)         Y(ANGSTROM)         Z(ANGSTROM)
 *******************************************************************************
   1 T   8 O     0.000000000000E+00  0.000000000000E+00  0.000000000000E+00
   2 T   1 H     7.646155496410E-01  0.000000000000E+00  5.496191713470E-01
   3 F   1 H    -7.646155496410E-01  0.000000000000E+00  5.496191713470E-01

 T = ATOM BELONGING TO THE ASYMMETRIC UNIT

 ****   4 SYMMOPS - TRANSLATORS IN FRACTIONAL UNITS
  V INV                   ROTATION MATRICES                       TRANSLATOR
  1  1  1.00  0.00  0.00  0.00  1.00  0.00  0.00  0.00  1.00    0.00  0.00  0.00
  2  2 -1.00  0.00  0.00  0.00 -1.00  0.00  0.00  0.00  1.00    0.00  0.00  0.00
  3  3 -1.00  0.00  0.00  0.00  1.00  0.00  0.00  0.00  1.00    0.00  0.00  0.00
  4  4  1.00  0.00  0.00  0.00 -1.00  0.00  0.00  0.00  1.00    0.00  0.00  0.00

 *******************************************************************************
 LOCAL ATOMIC FUNCTIONS BASIS SET
 *******************************************************************************
   ATOM  X(AU)  Y(AU)  Z(AU)    NO. TYPE  EXPONENT  S COEF   P COEF   D/F/G COEF
 *******************************************************************************
   1 O   0.000  0.000  0.000
                                  1 S  
                                         8.020E+03 1.080E-03 0.000E+00 0.000E+00
                                         1.338E+03 8.040E-03 0.000E+00 0.000E+00
                                         2.554E+02 5.324E-02 0.000E+00 0.000E+00
                                         6.922E+01 1.681E-01 0.000E+00 0.000E+00
                                         2.390E+01 3.581E-01 0.000E+00 0.000E+00
                                         9.264E+00 3.855E-01 0.000E+00 0.000E+00
                                         3.851E+00 1.468E-01 0.000E+00 0.000E+00
                                         1.212E+00 7.280E-02 0.000E+00 0.000E+00
                             2-   5 SP 
                                         4.943E+01-8.830E-03 9.580E-03 0.000E+00
                                         1.047E+01-9.150E-02 6.960E-02 0.000E+00
                                         3.235E+00-4.020E-02 2.065E-01 0.000E+00
                                         1.217E+00 3.790E-01 3.470E-01 0.000E+00
                             6-   9 SP 
                                         4.520E-01 1.000E+00 1.000E+00 0.000E+00
                            10-  13 SP 
                                         1.679E-01 1.000E+00 1.000E+00 0.000E+00
                            14-  18 D  
                                         4.510E-01 0.000E+00 0.000E+00 1.000E+00
   2 H   1.445  0.000  1.039
                                 19 S  
                                         1.873E+01 3.349E-02 0.000E+00 0.000E+00
                                         2.825E+00 2.347E-01 0.000E+00 0.000E+00
                                         6.401E-01 8.138E-01 0.000E+00 0.000E+00
                                 20 S  
                                         1.613E-01 1.000E+00 0.000E+00 0.000E+00
                            21-  23 P  
                                         1.100E+00 0.000E+00 1.000E+00 0.000E+00
   3 H  -1.445  0.000  1.039
 INFORMATION **** BIPOSIZE **** COULOMB BIPOLAR BUFFER SET TO  1024000000
 INFORMATION **** EXCHSIZE **** EXCHANGE BIPOLAR BUFFER SIZE SET TO  1024000000
 INFORMATION **** TOLINTEG **** COULOMB AND EXCHANGE SERIES TOLERANCES MODIFIED
 INFORMATION **** TOLDEE **** SCF TOL ON TOTAL ENERGY SET TO           8
 INFORMATION **** MAXCYCLE **** MAX NUMBER OF SCF CYCLES SET TO         100
 INFORMATION **** NOMONDIR **** MONO ELECTRONIC INTEGRALS ON DISK - NO DIRECT
 INFORMATION **** PPAN ****  MULLIKEN POPULATION ANALYSIS AT THE END OF SCF
 *******************************************************************************
 N. OF ATOMS PER CELL        3  COULOMB OVERLAP TOL         (T1) 10** -6
 NUMBER OF SHELLS           11  COULOMB PENETRATION TOL     (T2) 10** -6
 NUMBER OF AO               28  EXCHANGE OVERLAP TOL        (T3) 10** -6
 N. OF ELECTRONS PER CELL   10  EXCHANGE PSEUDO OVP (F(G))  (T4) 10** -6
 CORE ELECTRONS PER CELL     2  EXCHANGE PSEUDO OVP (P(G))  (T5) 10**-12
 N. OF SYMMETRY OPERATORS    4  POLE ORDER IN MONO ZONE                4
 *******************************************************************************
 TYPE OF CALCULATION :  RESTRICTED CLOSED SHELL
 KOHN-SHAM HAMILTONIAN

 (EXCHANGE)[CORRELATION] FUNCTIONAL:(PERDEW-BURKE-ERNZERHOF)[PERDEW-BURKE-ERNZERHOF]


 HYBRID EXCHANGE - PERCENTAGE OF FOCK EXCHANGE    25.0000

 CAPPA:IS1  1;IS2  1;IS3  1; K PTS MONK NET    1; SYMMOPS: K SPACE  8;G SPACE  4

 *******************************************************************************
 MAX NUMBER OF SCF CYCLES     100  CONVERGENCE ON DELTAP        10**-18
 WEIGHT OF F(I) IN F(I+1)      30% CONVERGENCE ON ENERGY        10**- 8

 DISK SPACE FOR EIGENVECTORS (FTN 10)        784 REALS

 SYMMETRY ADAPTION OF THE BLOCH FUNCTIONS ENABLED

 DIMENSIONS  P(G)=     784 F(G)=     406 P(G),F(G) (IRR)     325
 MAX G-VECTOR INDEX FOR 1- AND 2-ELECTRON INTEGRALS   1

 TTTTTTTTTTTTTTTTTTTTTTTTTTTTTT INPUT       TELAPSE        6.48 TCPU        0.00

 NEIGHBORS OF THE NON-EQUIVALENT ATOMS

 N = NUMBER OF NEIGHBORS AT DISTANCE R
    ATOM  N     R/ANG      R/AU   NEIGHBORS (ATOM LABELS AND CELL INDICES)
   1 O    2     0.9417     1.7795   2 H    0 0 0   3 H    0 0 0

   2 H    1     0.9417     1.7795   1 O    0 0 0
   2 H    1     1.5292     2.8898   3 H    0 0 0


 SYMMETRY ALLOWED INTERNAL DEGREE(S) OF FREEDOM:   2
 TTTTTTTTTTTTTTTTTTTTTTTTTTTTTT SYMM        TELAPSE        7.00 TCPU        0.01
 TTTTTTTTTTTTTTTTTTTTTTTTTTTTTT INT_SCREEN  TELAPSE        7.10 TCPU        0.01
 *******************************************************************************
 COORDINATE OPTIMIZATION - POINT    1
 INFORMATION **** EXCBUF **** EXCH. BIPO BUFFER: WORDS USED =        9576
 TTTTTTTTTTTTTTTTTTTTTTTTTTTTTT MONIRR      TELAPSE        7.80 TCPU        0.04

 DFT PARAMETERS

     ATOM       ELECTRONS   NET CHARGE   R(ANGSTROM)
   1   8  O      10.0000     -2.0000     1.40000000
   2   1  H       0.0000      1.0000     1.11000000

 SIZE OF GRID=      28084
 TTTTTTTTTTTTTTTTTTTTTTTTTTTTTT MAKE_GRID2  TELAPSE        8.47 TCPU        0.14
 BECKE WEIGHT FUNCTION
 RADSAFE =     2.00
 TOLERANCES - DENSITY:10**- 8; POTENTIAL:10**- 9; GRID WGT:10**-16

 RADIAL INTEGRATION  - INTERVALS (POINTS,UPPER LIMIT):            1( 75,  4.0*R)

 ANGULAR INTEGRATION - INTERVALS (ACCURACY LEVEL [N. POINTS] UPPER LIMIT):
  1(  4[  86]   0.2)  2(  8[ 194]   0.5)  3( 12[ 350]   0.9)  4( 16[ 974]   3.5)
  5( 12[ 350]9999.0)
 TTTTTTTTTTTTTTTTTTTTTTTTTTTTTT MONMAD      TELAPSE        8.97 TCPU        0.15
 TTTTTTTTTTTTTTTTTTTTTTTTTTTTTT INT_CALC    TELAPSE        9.20 TCPU        0.15

 *******************************************************************************
 d-metal oxides 4 school 2013                                                    
 CRYSTAL - SCF - TYPE OF CALCULATION :  RESTRICTED CLOSED SHELL
 *******************************************************************************

 CAPPA:IS1  1;IS2  1;IS3  1; K PTS MONK NET    1; SYMMOPS: K SPACE  8;G SPACE  4

 TTTTTTTTTTTTTTTTTTTTTTTTTTTTTT SDIK        TELAPSE        9.73 TCPU        0.17

 AAAAAAAAAAAAAAAAAAAAAAAAAAAAAAAAAAAAAAAAAAAAAAAAAAAAAAAAAAAAAAAAAAAAAAAAAAAAAAA
         ATOMIC WAVEFUNCTION(S)


 NUCLEAR CHARGE  8.0  SYMMETRY SPECIES            S    P
 N. ELECTRONS   10.0  NUMBER OF PRIMITIVE GTOS   14    6
                      NUMBER OF CONTRACTED GTOS   4    3
                      NUMBER OF CLOSED SHELLS     2    1
                      OPEN SHELL OCCUPATION       0    0

  ZNUC SCFIT  TOTAL HF ENERGY   KINETIC ENERGY   VIRIAL THEOREM ACCURACY
   8.0 107   -7.435292338E+01  7.460550916E+01 -1.996614382E+00  4.8E-06

 AAAAAAAAAAAAAAAAAAAAAAAAAAAAAAAAAAAAAAAAAAAAAAAAAAAAAAAAAAAAAAAAAAAAAAAAAAAAAAA

 CHARGE NORMALIZATION FACTOR   1.00000000
 TOTAL ATOMIC CHARGES:
  10.0000000   0.0000000   0.0000000
 TTTTTTTTTTTTTTTTTTTTTTTTTTTTTT QGAM        TELAPSE        9.74 TCPU        0.18
 TTTTTTTTTTTTTTTTTTTTTTTTTTTTTT SHELLX      TELAPSE       10.74 TCPU        0.37
 TTTTTTTTTTTTTTTTTTTTTTTTTTTTTT TOTENY      TELAPSE       10.88 TCPU        0.37
 NUMERICALLY INTEGRATED DENSITY     10.0000038285
 TTTTTTTTTTTTTTTTTTTTTTTTTTTTTT NUMDFT      TELAPSE       12.50 TCPU        1.42
 CYC   0 ETOT(AU) -7.585103299924E+01 DETOT -7.59E+01 tst  0.00E+00 PX  1.00E+00
 TTTTTTTTTTTTTTTTTTTTTTTTTTTTTT FDIK        TELAPSE       12.50 TCPU        1.42
 INSULATING STATE
 TOP OF VALENCE BANDS -    BAND      5; K    1; EIG -5.0373588E-01 AU
 BOTTOM OF VIRTUAL BANDS - BAND      6; K    1; EIG -5.2692956E-02 AU
 TTTTTTTTTTTTTTTTTTTTTTTTTTTTTT PDIG        TELAPSE       12.50 TCPU        1.42
 CHARGE NORMALIZATION FACTOR   1.00000000
 TOTAL ATOMIC CHARGES:
   8.8102981   0.5948510   0.5948510
 TTTTTTTTTTTTTTTTTTTTTTTTTTTTTT QGAM        TELAPSE       12.50 TCPU        1.42
 TTTTTTTTTTTTTTTTTTTTTTTTTTTTTT SHELLX      TELAPSE       12.81 TCPU        1.67
 TTTTTTTTTTTTTTTTTTTTTTTTTTTTTT TOTENY      TELAPSE       12.81 TCPU        1.67
 NUMERICALLY INTEGRATED DENSITY     10.0000024539
 TTTTTTTTTTTTTTTTTTTTTTTTTTTTTT NUMDFT      TELAPSE       14.35 TCPU        3.01
 CYC   1 ETOT(AU) -7.630410226769E+01 DETOT -4.53E-01 tst  0.00E+00 PX  1.00E+00
 TTTTTTTTTTTTTTTTTTTTTTTTTTTTTT FDIK        TELAPSE       14.35 TCPU        3.01
 INSULATING STATE
 TOP OF VALENCE BANDS -    BAND      5; K    1; EIG -2.8255282E-01 AU
 BOTTOM OF VIRTUAL BANDS - BAND      6; K    1; EIG  7.3371680E-02 AU
 TTTTTTTTTTTTTTTTTTTTTTTTTTTTTT PDIG        TELAPSE       14.35 TCPU        3.01
 CHARGE NORMALIZATION FACTOR   1.00000000
 TOTAL ATOMIC CHARGES:
   8.5633000   0.7183500   0.7183500
 TTTTTTTTTTTTTTTTTTTTTTTTTTTTTT QGAM        TELAPSE       14.35 TCPU        3.01
 TTTTTTTTTTTTTTTTTTTTTTTTTTTTTT SHELLX      TELAPSE       14.55 TCPU        3.20
 TTTTTTTTTTTTTTTTTTTTTTTTTTTTTT TOTENY      TELAPSE       14.55 TCPU        3.20
 NUMERICALLY INTEGRATED DENSITY     10.0000023638
 TTTTTTTTTTTTTTTTTTTTTTTTTTTTTT NUMDFT      TELAPSE       16.01 TCPU        4.56
 CYC   2 ETOT(AU) -7.634651393445E+01 DETOT -4.24E-02 tst  6.12E-03 PX  1.32E-01
 TTTTTTTTTTTTTTTTTTTTTTTTTTTTTT FDIK        TELAPSE       16.01 TCPU        4.56
 INSULATING STATE
 TOP OF VALENCE BANDS -    BAND      5; K    1; EIG -3.7329860E-01 AU
 BOTTOM OF VIRTUAL BANDS - BAND      6; K    1; EIG  6.5752220E-02 AU
 TTTTTTTTTTTTTTTTTTTTTTTTTTTTTT PDIG        TELAPSE       16.01 TCPU        4.56
 CHARGE NORMALIZATION FACTOR   1.00000000
 TOTAL ATOMIC CHARGES:
   8.7227116   0.6386442   0.6386442
 TTTTTTTTTTTTTTTTTTTTTTTTTTTTTT QGAM        TELAPSE       16.01 TCPU        4.56
 TTTTTTTTTTTTTTTTTTTTTTTTTTTTTT SHELLX      TELAPSE       16.22 TCPU        4.76
 TTTTTTTTTTTTTTTTTTTTTTTTTTTTTT TOTENY      TELAPSE       16.23 TCPU        4.77
 NUMERICALLY INTEGRATED DENSITY     10.0000021423
 TTTTTTTTTTTTTTTTTTTTTTTTTTTTTT NUMDFT      TELAPSE       17.68 TCPU        6.08
 CYC   3 ETOT(AU) -7.635750533552E+01 DETOT -1.10E-02 tst  2.55E-03 PX  8.49E-02
 TTTTTTTTTTTTTTTTTTTTTTTTTTTTTT FDIK        TELAPSE       17.68 TCPU        6.08
 INSULATING STATE
 TOP OF VALENCE BANDS -    BAND      5; K    1; EIG -3.0066776E-01 AU
 BOTTOM OF VIRTUAL BANDS - BAND      6; K    1; EIG  8.4594495E-02 AU
 TTTTTTTTTTTTTTTTTTTTTTTTTTTTTT PDIG        TELAPSE       17.68 TCPU        6.08
 CHARGE NORMALIZATION FACTOR   1.00000000
 TOTAL ATOMIC CHARGES:
   8.6034032   0.6982984   0.6982984
 TTTTTTTTTTTTTTTTTTTTTTTTTTTTTT QGAM        TELAPSE       17.68 TCPU        6.08
 TTTTTTTTTTTTTTTTTTTTTTTTTTTTTT SHELLX      TELAPSE       17.90 TCPU        6.29
 TTTTTTTTTTTTTTTTTTTTTTTTTTTTTT TOTENY      TELAPSE       17.90 TCPU        6.29
 NUMERICALLY INTEGRATED DENSITY     10.0000022338
 TTTTTTTTTTTTTTTTTTTTTTTTTTTTTT NUMDFT      TELAPSE       19.41 TCPU        7.64
 CYC   4 ETOT(AU) -7.636239761159E+01 DETOT -4.89E-03 tst  1.11E-03 PX  5.65E-02
 TTTTTTTTTTTTTTTTTTTTTTTTTTTTTT FDIK        TELAPSE       19.41 TCPU        7.64
 INSULATING STATE
 TOP OF VALENCE BANDS -    BAND      5; K    1; EIG -3.4740337E-01 AU
 BOTTOM OF VIRTUAL BANDS - BAND      6; K    1; EIG  7.5025272E-02 AU
 TTTTTTTTTTTTTTTTTTTTTTTTTTTTTT PDIG        TELAPSE       19.41 TCPU        7.64
 CHARGE NORMALIZATION FACTOR   1.00000000
 TOTAL ATOMIC CHARGES:
   8.6796333   0.6601834   0.6601834
 TTTTTTTTTTTTTTTTTTTTTTTTTTTTTT QGAM        TELAPSE       19.41 TCPU        7.64
 TTTTTTTTTTTTTTTTTTTTTTTTTTTTTT SHELLX      TELAPSE       19.62 TCPU        7.85
 TTTTTTTTTTTTTTTTTTTTTTTTTTTTTT TOTENY      TELAPSE       19.62 TCPU        7.85
 NUMERICALLY INTEGRATED DENSITY     10.0000021569
 TTTTTTTTTTTTTTTTTTTTTTTTTTTTTT NUMDFT      TELAPSE       21.42 TCPU        9.27
 CYC   5 ETOT(AU) -7.636467135910E+01 DETOT -2.27E-03 tst  5.47E-04 PX  3.93E-02
 TTTTTTTTTTTTTTTTTTTTTTTTTTTTTT FDIK        TELAPSE       21.42 TCPU        9.27
 INSULATING STATE
 TOP OF VALENCE BANDS -    BAND      5; K    1; EIG -3.1459365E-01 AU
 BOTTOM OF VIRTUAL BANDS - BAND      6; K    1; EIG  8.2510180E-02 AU
 TTTTTTTTTTTTTTTTTTTTTTTTTTTTTT PDIG        TELAPSE       21.42 TCPU        9.27
 CHARGE NORMALIZATION FACTOR   1.00000000
 TOTAL ATOMIC CHARGES:
   8.6254495   0.6872752   0.6872752
 TTTTTTTTTTTTTTTTTTTTTTTTTTTTTT QGAM        TELAPSE       21.42 TCPU        9.27
 TTTTTTTTTTTTTTTTTTTTTTTTTTTTTT SHELLX      TELAPSE       21.63 TCPU        9.47
 TTTTTTTTTTTTTTTTTTTTTTTTTTTTTT TOTENY      TELAPSE       21.64 TCPU        9.48
 NUMERICALLY INTEGRATED DENSITY     10.0000022037
 TTTTTTTTTTTTTTTTTTTTTTTTTTTTTT NUMDFT      TELAPSE       23.15 TCPU       10.85
 CYC   6 ETOT(AU) -7.636572360682E+01 DETOT -1.05E-03 tst  2.43E-04 PX  2.65E-02
 TTTTTTTTTTTTTTTTTTTTTTTTTTTTTT FDIK        TELAPSE       23.15 TCPU       10.85
 INSULATING STATE
 TOP OF VALENCE BANDS -    BAND      5; K    1; EIG -3.3660838E-01 AU
 BOTTOM OF VIRTUAL BANDS - BAND      6; K    1; EIG  7.7718526E-02 AU
 TTTTTTTTTTTTTTTTTTTTTTTTTTTTTT PDIG        TELAPSE       23.15 TCPU       10.85
 CHARGE NORMALIZATION FACTOR   1.00000000
 TOTAL ATOMIC CHARGES:
   8.6616427   0.6691786   0.6691786
 TTTTTTTTTTTTTTTTTTTTTTTTTTTTTT QGAM        TELAPSE       23.16 TCPU       10.86
 TTTTTTTTTTTTTTTTTTTTTTTTTTTTTT SHELLX      TELAPSE       23.38 TCPU       11.07
 TTTTTTTTTTTTTTTTTTTTTTTTTTTTTT TOTENY      TELAPSE       23.39 TCPU       11.08
 NUMERICALLY INTEGRATED DENSITY     10.0000021699
 TTTTTTTTTTTTTTTTTTTTTTTTTTTTTT NUMDFT      TELAPSE       24.92 TCPU       12.44
 CYC   7 ETOT(AU) -7.636621635783E+01 DETOT -4.93E-04 tst  1.16E-04 PX  1.81E-02
 TTTTTTTTTTTTTTTTTTTTTTTTTTTTTT FDIK        TELAPSE       24.93 TCPU       12.45
 INSULATING STATE
 TOP OF VALENCE BANDS -    BAND      5; K    1; EIG -3.2149068E-01 AU
 BOTTOM OF VIRTUAL BANDS - BAND      6; K    1; EIG  8.1082548E-02 AU
 TTTTTTTTTTTTTTTTTTTTTTTTTTTTTT PDIG        TELAPSE       24.93 TCPU       12.45
 CHARGE NORMALIZATION FACTOR   1.00000000
 TOTAL ATOMIC CHARGES:
   8.6367102   0.6816449   0.6816449
 TTTTTTTTTTTTTTTTTTTTTTTTTTTTTT QGAM        TELAPSE       24.93 TCPU       12.45
 TTTTTTTTTTTTTTTTTTTTTTTTTTTTTT SHELLX      TELAPSE       25.13 TCPU       12.62
 TTTTTTTTTTTTTTTTTTTTTTTTTTTTTT TOTENY      TELAPSE       25.14 TCPU       12.63
 NUMERICALLY INTEGRATED DENSITY     10.0000021922
 TTTTTTTTTTTTTTTTTTTTTTTTTTTTTT NUMDFT      TELAPSE       26.64 TCPU       13.96
 CYC   8 ETOT(AU) -7.636644133941E+01 DETOT -2.25E-04 tst  5.28E-05 PX  1.22E-02
 TTTTTTTTTTTTTTTTTTTTTTTTTTTTTT FDIK        TELAPSE       26.64 TCPU       13.96
 INSULATING STATE
 TOP OF VALENCE BANDS -    BAND      5; K    1; EIG -3.3171758E-01 AU
 BOTTOM OF VIRTUAL BANDS - BAND      6; K    1; EIG  7.8831314E-02 AU
 TTTTTTTTTTTTTTTTTTTTTTTTTTTTTT PDIG        TELAPSE       26.64 TCPU       13.96
 CHARGE NORMALIZATION FACTOR   1.00000000
 TOTAL ATOMIC CHARGES:
   8.6535106   0.6732447   0.6732447
 TTTTTTTTTTTTTTTTTTTTTTTTTTTTTT QGAM        TELAPSE       26.65 TCPU       13.97
 TTTTTTTTTTTTTTTTTTTTTTTTTTTTTT SHELLX      TELAPSE       26.86 TCPU       14.17
 TTTTTTTTTTTTTTTTTTTTTTTTTTTTTT TOTENY      TELAPSE       26.86 TCPU       14.17
 NUMERICALLY INTEGRATED DENSITY     10.0000021768
 TTTTTTTTTTTTTTTTTTTTTTTTTTTTTT NUMDFT      TELAPSE       28.29 TCPU       15.54
 CYC   9 ETOT(AU) -7.636654662744E+01 DETOT -1.05E-04 tst  2.47E-05 PX  8.43E-03
 TTTTTTTTTTTTTTTTTTTTTTTTTTTTTT FDIK        TELAPSE       28.29 TCPU       15.54
 INSULATING STATE
 TOP OF VALENCE BANDS -    BAND      5; K    1; EIG -3.2471946E-01 AU
 BOTTOM OF VIRTUAL BANDS - BAND      6; K    1; EIG  8.0379532E-02 AU
 TTTTTTTTTTTTTTTTTTTTTTTTTTTTTT PDIG        TELAPSE       28.29 TCPU       15.54
 CHARGE NORMALIZATION FACTOR   1.00000000
 TOTAL ATOMIC CHARGES:
   8.6419351   0.6790325   0.6790325
 TTTTTTTTTTTTTTTTTTTTTTTTTTTTTT QGAM        TELAPSE       28.29 TCPU       15.54
 TTTTTTTTTTTTTTTTTTTTTTTTTTTTTT SHELLX      TELAPSE       28.50 TCPU       15.74
 TTTTTTTTTTTTTTTTTTTTTTTTTTTTTT TOTENY      TELAPSE       28.51 TCPU       15.75
 NUMERICALLY INTEGRATED DENSITY     10.0000021871
 TTTTTTTTTTTTTTTTTTTTTTTTTTTTTT NUMDFT      TELAPSE       29.94 TCPU       17.09
 CYC  10 ETOT(AU) -7.636659510971E+01 DETOT -4.85E-05 tst  1.14E-05 PX  5.70E-03
 TTTTTTTTTTTTTTTTTTTTTTTTTTTTTT FDIK        TELAPSE       29.94 TCPU       17.09
 INSULATING STATE
 TOP OF VALENCE BANDS -    BAND      5; K    1; EIG -3.2947847E-01 AU
 BOTTOM OF VIRTUAL BANDS - BAND      6; K    1; EIG  7.9329161E-02 AU
 TTTTTTTTTTTTTTTTTTTTTTTTTTTTTT PDIG        TELAPSE       29.94 TCPU       17.09
 CHARGE NORMALIZATION FACTOR   1.00000000
 TOTAL ATOMIC CHARGES:
   8.6497765   0.6751117   0.6751117
 TTTTTTTTTTTTTTTTTTTTTTTTTTTTTT QGAM        TELAPSE       29.94 TCPU       17.09
 TTTTTTTTTTTTTTTTTTTTTTTTTTTTTT SHELLX      TELAPSE       30.15 TCPU       17.26
 TTTTTTTTTTTTTTTTTTTTTTTTTTTTTT TOTENY      TELAPSE       30.15 TCPU       17.26
 NUMERICALLY INTEGRATED DENSITY     10.0000021800
 TTTTTTTTTTTTTTTTTTTTTTTTTTTTTT NUMDFT      TELAPSE       31.59 TCPU       18.61
 CYC  11 ETOT(AU) -7.636661782054E+01 DETOT -2.27E-05 tst  5.33E-06 PX  3.91E-03
 TTTTTTTTTTTTTTTTTTTTTTTTTTTTTT FDIK        TELAPSE       31.59 TCPU       18.61
 INSULATING STATE
 TOP OF VALENCE BANDS -    BAND      5; K    1; EIG -3.2622830E-01 AU
 BOTTOM OF VIRTUAL BANDS - BAND      6; K    1; EIG  8.0047337E-02 AU
 TTTTTTTTTTTTTTTTTTTTTTTTTTTTTT PDIG        TELAPSE       31.59 TCPU       18.61
 CHARGE NORMALIZATION FACTOR   1.00000000
 TOTAL ATOMIC CHARGES:
   8.6444313   0.6777843   0.6777843
 TTTTTTTTTTTTTTTTTTTTTTTTTTTTTT QGAM        TELAPSE       31.59 TCPU       18.61
 TTTTTTTTTTTTTTTTTTTTTTTTTTTTTT SHELLX      TELAPSE       31.80 TCPU       18.80
 TTTTTTTTTTTTTTTTTTTTTTTTTTTTTT TOTENY      TELAPSE       31.80 TCPU       18.80
 NUMERICALLY INTEGRATED DENSITY     10.0000021848
 TTTTTTTTTTTTTTTTTTTTTTTTTTTTTT NUMDFT      TELAPSE       33.59 TCPU       20.19
 CYC  12 ETOT(AU) -7.636662832500E+01 DETOT -1.05E-05 tst  2.47E-06 PX  2.66E-03
 TTTTTTTTTTTTTTTTTTTTTTTTTTTTTT FDIK        TELAPSE       33.59 TCPU       20.19
 INSULATING STATE
 TOP OF VALENCE BANDS -    BAND      5; K    1; EIG -3.2843964E-01 AU
 BOTTOM OF VIRTUAL BANDS - BAND      6; K    1; EIG  7.9559007E-02 AU
 TTTTTTTTTTTTTTTTTTTTTTTTTTTTTT PDIG        TELAPSE       33.60 TCPU       20.20
 CHARGE NORMALIZATION FACTOR   1.00000000
 TOTAL ATOMIC CHARGES:
   8.6480748   0.6759626   0.6759626
 TTTTTTTTTTTTTTTTTTTTTTTTTTTTTT QGAM        TELAPSE       33.60 TCPU       20.20
 TTTTTTTTTTTTTTTTTTTTTTTTTTTTTT SHELLX      TELAPSE       33.81 TCPU       20.40
 TTTTTTTTTTTTTTTTTTTTTTTTTTTTTT TOTENY      TELAPSE       33.81 TCPU       20.40
 NUMERICALLY INTEGRATED DENSITY     10.0000021815
 TTTTTTTTTTTTTTTTTTTTTTTTTTTTTT NUMDFT      TELAPSE       35.30 TCPU       21.72
 CYC  13 ETOT(AU) -7.636663321560E+01 DETOT -4.89E-06 tst  1.15E-06 PX  1.81E-03
 TTTTTTTTTTTTTTTTTTTTTTTTTTTTTT FDIK        TELAPSE       35.30 TCPU       21.72
 INSULATING STATE
 TOP OF VALENCE BANDS -    BAND      5; K    1; EIG -3.2693111E-01 AU
 BOTTOM OF VIRTUAL BANDS - BAND      6; K    1; EIG  7.9892277E-02 AU
 TTTTTTTTTTTTTTTTTTTTTTTTTTTTTT PDIG        TELAPSE       35.30 TCPU       21.72
 CHARGE NORMALIZATION FACTOR   1.00000000
 TOTAL ATOMIC CHARGES:
   8.6455941   0.6772030   0.6772030
 TTTTTTTTTTTTTTTTTTTTTTTTTTTTTT QGAM        TELAPSE       35.30 TCPU       21.72
 TTTTTTTTTTTTTTTTTTTTTTTTTTTTTT SHELLX      TELAPSE       35.51 TCPU       21.90
 TTTTTTTTTTTTTTTTTTTTTTTTTTTTTT TOTENY      TELAPSE       35.52 TCPU       21.90
 NUMERICALLY INTEGRATED DENSITY     10.0000021838
 TTTTTTTTTTTTTTTTTTTTTTTTTTTTTT NUMDFT      TELAPSE       37.05 TCPU       23.19
 CYC  14 ETOT(AU) -7.636663548249E+01 DETOT -2.27E-06 tst  5.33E-07 PX  1.23E-03
 TTTTTTTTTTTTTTTTTTTTTTTTTTTTTT FDIK        TELAPSE       37.06 TCPU       23.20
 INSULATING STATE
 TOP OF VALENCE BANDS -    BAND      5; K    1; EIG -3.2795830E-01 AU
 BOTTOM OF VIRTUAL BANDS - BAND      6; K    1; EIG  7.9665421E-02 AU
 TTTTTTTTTTTTTTTTTTTTTTTTTTTTTT PDIG        TELAPSE       37.06 TCPU       23.20
 CHARGE NORMALIZATION FACTOR   1.00000000
 TOTAL ATOMIC CHARGES:
   8.6472859   0.6763571   0.6763571
 TTTTTTTTTTTTTTTTTTTTTTTTTTTTTT QGAM        TELAPSE       37.06 TCPU       23.20
 TTTTTTTTTTTTTTTTTTTTTTTTTTTTTT SHELLX      TELAPSE       37.26 TCPU       23.39
 TTTTTTTTTTTTTTTTTTTTTTTTTTTTTT TOTENY      TELAPSE       37.26 TCPU       23.39
 NUMERICALLY INTEGRATED DENSITY     10.0000021822
 TTTTTTTTTTTTTTTTTTTTTTTTTTTTTT NUMDFT      TELAPSE       38.69 TCPU       24.72
 CYC  15 ETOT(AU) -7.636663653640E+01 DETOT -1.05E-06 tst  2.48E-07 PX  8.42E-04
 TTTTTTTTTTTTTTTTTTTTTTTTTTTTTT FDIK        TELAPSE       38.69 TCPU       24.72
 INSULATING STATE
 TOP OF VALENCE BANDS -    BAND      5; K    1; EIG -3.2725798E-01 AU
 BOTTOM OF VIRTUAL BANDS - BAND      6; K    1; EIG  7.9820120E-02 AU
 TTTTTTTTTTTTTTTTTTTTTTTTTTTTTT PDIG        TELAPSE       38.69 TCPU       24.72
 CHARGE NORMALIZATION FACTOR   1.00000000
 TOTAL ATOMIC CHARGES:
   8.6461334   0.6769333   0.6769333
 TTTTTTTTTTTTTTTTTTTTTTTTTTTTTT QGAM        TELAPSE       38.69 TCPU       24.72
 TTTTTTTTTTTTTTTTTTTTTTTTTTTTTT SHELLX      TELAPSE       38.90 TCPU       24.92
 TTTTTTTTTTTTTTTTTTTTTTTTTTTTTT TOTENY      TELAPSE       38.90 TCPU       24.92
 NUMERICALLY INTEGRATED DENSITY     10.0000021833
 TTTTTTTTTTTTTTTTTTTTTTTTTTTTTT NUMDFT      TELAPSE       40.42 TCPU       26.30
 CYC  16 ETOT(AU) -7.636663702538E+01 DETOT -4.89E-07 tst  1.15E-07 PX  5.73E-04
 TTTTTTTTTTTTTTTTTTTTTTTTTTTTTT FDIK        TELAPSE       40.42 TCPU       26.30
 INSULATING STATE
 TOP OF VALENCE BANDS -    BAND      5; K    1; EIG -3.2773503E-01 AU
 BOTTOM OF VIRTUAL BANDS - BAND      6; K    1; EIG  7.9714754E-02 AU
 TTTTTTTTTTTTTTTTTTTTTTTTTTTTTT PDIG        TELAPSE       40.42 TCPU       26.30
 CHARGE NORMALIZATION FACTOR   1.00000000
 TOTAL ATOMIC CHARGES:
   8.6469194   0.6765403   0.6765403
 TTTTTTTTTTTTTTTTTTTTTTTTTTTTTT QGAM        TELAPSE       40.42 TCPU       26.30
 TTTTTTTTTTTTTTTTTTTTTTTTTTTTTT SHELLX      TELAPSE       40.63 TCPU       26.50
 TTTTTTTTTTTTTTTTTTTTTTTTTTTTTT TOTENY      TELAPSE       40.63 TCPU       26.50
 NUMERICALLY INTEGRATED DENSITY     10.0000021826
 TTTTTTTTTTTTTTTTTTTTTTTTTTTTTT NUMDFT      TELAPSE       42.08 TCPU       27.79
 CYC  17 ETOT(AU) -7.636663725258E+01 DETOT -2.27E-07 tst  5.34E-08 PX  3.91E-04
 TTTTTTTTTTTTTTTTTTTTTTTTTTTTTT FDIK        TELAPSE       42.08 TCPU       27.79
 INSULATING STATE
 TOP OF VALENCE BANDS -    BAND      5; K    1; EIG -3.2740986E-01 AU
 BOTTOM OF VIRTUAL BANDS - BAND      6; K    1; EIG  7.9786606E-02 AU
 TTTTTTTTTTTTTTTTTTTTTTTTTTTTTT PDIG        TELAPSE       42.08 TCPU       27.79
 CHARGE NORMALIZATION FACTOR   1.00000000
 TOTAL ATOMIC CHARGES:
   8.6463843   0.6768079   0.6768079
 TTTTTTTTTTTTTTTTTTTTTTTTTTTTTT QGAM        TELAPSE       42.09 TCPU       27.80
 TTTTTTTTTTTTTTTTTTTTTTTTTTTTTT SHELLX      TELAPSE       42.30 TCPU       27.99
 TTTTTTTTTTTTTTTTTTTTTTTTTTTTTT TOTENY      TELAPSE       42.30 TCPU       27.99
 NUMERICALLY INTEGRATED DENSITY     10.0000021831
 TTTTTTTTTTTTTTTTTTTTTTTTTTTTTT NUMDFT      TELAPSE       43.83 TCPU       29.30
 CYC  18 ETOT(AU) -7.636663735804E+01 DETOT -1.05E-07 tst  2.48E-08 PX  2.66E-04
 TTTTTTTTTTTTTTTTTTTTTTTTTTTTTT FDIK        TELAPSE       43.83 TCPU       29.30
 INSULATING STATE
 TOP OF VALENCE BANDS -    BAND      5; K    1; EIG -3.2763140E-01 AU
 BOTTOM OF VIRTUAL BANDS - BAND      6; K    1; EIG  7.9737678E-02 AU
 TTTTTTTTTTTTTTTTTTTTTTTTTTTTTT PDIG        TELAPSE       43.83 TCPU       29.30
 CHARGE NORMALIZATION FACTOR   1.00000000
 TOTAL ATOMIC CHARGES:
   8.6467489   0.6766255   0.6766255
 TTTTTTTTTTTTTTTTTTTTTTTTTTTTTT QGAM        TELAPSE       43.83 TCPU       29.30
 TTTTTTTTTTTTTTTTTTTTTTTTTTTTTT SHELLX      TELAPSE       44.04 TCPU       29.51
 TTTTTTTTTTTTTTTTTTTTTTTTTTTTTT TOTENY      TELAPSE       44.04 TCPU       29.51
 NUMERICALLY INTEGRATED DENSITY     10.0000021827
 TTTTTTTTTTTTTTTTTTTTTTTTTTTTTT NUMDFT      TELAPSE       45.50 TCPU       30.90
 CYC  19 ETOT(AU) -7.636663740702E+01 DETOT -4.90E-08 tst  1.15E-08 PX  1.81E-04
 TTTTTTTTTTTTTTTTTTTTTTTTTTTTTT FDIK        TELAPSE       45.51 TCPU       30.91
 INSULATING STATE
 TOP OF VALENCE BANDS -    BAND      5; K    1; EIG -3.2748041E-01 AU
 BOTTOM OF VIRTUAL BANDS - BAND      6; K    1; EIG  7.9771028E-02 AU
 TTTTTTTTTTTTTTTTTTTTTTTTTTTTTT PDIG        TELAPSE       45.51 TCPU       30.91
 CHARGE NORMALIZATION FACTOR   1.00000000
 TOTAL ATOMIC CHARGES:
   8.6465003   0.6767498   0.6767498
 TTTTTTTTTTTTTTTTTTTTTTTTTTTTTT QGAM        TELAPSE       45.51 TCPU       30.91
 TTTTTTTTTTTTTTTTTTTTTTTTTTTTTT SHELLX      TELAPSE       45.72 TCPU       31.12
 TTTTTTTTTTTTTTTTTTTTTTTTTTTTTT TOTENY      TELAPSE       45.72 TCPU       31.12
 NUMERICALLY INTEGRATED DENSITY     10.0000021830
 TTTTTTTTTTTTTTTTTTTTTTTTTTTTTT NUMDFT      TELAPSE       47.19 TCPU       32.50
 CYC  20 ETOT(AU) -7.636663742976E+01 DETOT -2.27E-08 tst  5.35E-09 PX  1.24E-04
 TTTTTTTTTTTTTTTTTTTTTTTTTTTTTT FDIK        TELAPSE       47.19 TCPU       32.50
 INSULATING STATE
 TOP OF VALENCE BANDS -    BAND      5; K    1; EIG -3.2758329E-01 AU
 BOTTOM OF VIRTUAL BANDS - BAND      6; K    1; EIG  7.9748305E-02 AU
 TTTTTTTTTTTTTTTTTTTTTTTTTTTTTT PDIG        TELAPSE       47.19 TCPU       32.50
 CHARGE NORMALIZATION FACTOR   1.00000000
 TOTAL ATOMIC CHARGES:
   8.6466697   0.6766652   0.6766652
 TTTTTTTTTTTTTTTTTTTTTTTTTTTTTT QGAM        TELAPSE       47.19 TCPU       32.50
 TTTTTTTTTTTTTTTTTTTTTTTTTTTTTT SHELLX      TELAPSE       47.40 TCPU       32.70
 TTTTTTTTTTTTTTTTTTTTTTTTTTTTTT TOTENY      TELAPSE       47.41 TCPU       32.70
 NUMERICALLY INTEGRATED DENSITY     10.0000021828
 TTTTTTTTTTTTTTTTTTTTTTTTTTTTTT NUMDFT      TELAPSE       48.86 TCPU       34.02
 CYC  21 ETOT(AU) -7.636663744032E+01 DETOT -1.06E-08 tst  2.48E-09 PX  8.43E-05
 TTTTTTTTTTTTTTTTTTTTTTTTTTTTTT FDIK        TELAPSE       48.86 TCPU       34.02
 INSULATING STATE
 TOP OF VALENCE BANDS -    BAND      5; K    1; EIG -3.2751318E-01 AU
 BOTTOM OF VIRTUAL BANDS - BAND      6; K    1; EIG  7.9763790E-02 AU
 TTTTTTTTTTTTTTTTTTTTTTTTTTTTTT PDIG        TELAPSE       48.86 TCPU       34.02
 CHARGE NORMALIZATION FACTOR   1.00000000
 TOTAL ATOMIC CHARGES:
   8.6465542   0.6767229   0.6767229
 TTTTTTTTTTTTTTTTTTTTTTTTTTTTTT QGAM        TELAPSE       48.86 TCPU       34.02
 TTTTTTTTTTTTTTTTTTTTTTTTTTTTTT SHELLX      TELAPSE       49.07 TCPU       34.22
 TTTTTTTTTTTTTTTTTTTTTTTTTTTTTT TOTENY      TELAPSE       49.07 TCPU       34.22
 NUMERICALLY INTEGRATED DENSITY     10.0000021829
 TTTTTTTTTTTTTTTTTTTTTTTTTTTTTT NUMDFT      TELAPSE       50.49 TCPU       35.53
 CYC  22 ETOT(AU) -7.636663744523E+01 DETOT -4.90E-09 tst  1.15E-09 PX  5.74E-05
 TTTTTTTTTTTTTTTTTTTTTTTTTTTTTT FDIK        TELAPSE       50.49 TCPU       35.53
 INSULATING STATE
 TOP OF VALENCE BANDS -    BAND      5; K    1; EIG -3.2756096E-01 AU
 BOTTOM OF VIRTUAL BANDS - BAND      6; K    1; EIG  7.9753234E-02 AU
 TTTTTTTTTTTTTTTTTTTTTTTTTTTTTT PDIG        TELAPSE       50.49 TCPU       35.53
 CHARGE NORMALIZATION FACTOR   1.00000000
 TOTAL ATOMIC CHARGES:
   8.6466329   0.6766836   0.6766836
 TTTTTTTTTTTTTTTTTTTTTTTTTTTTTT QGAM        TELAPSE       50.50 TCPU       35.54
 TTTTTTTTTTTTTTTTTTTTTTTTTTTTTT SHELLX      TELAPSE       50.70 TCPU       35.70
 +++ ENERGIES IN A.U. +++
 ::: EXT EL-POLE : L =  0                          0.0000000000000E+00
 ::: EXT EL-POLE : L =  1                          0.0000000000000E+00
 ::: EXT EL-POLE : L =  2                          0.0000000000000E+00
 ::: EXT EL-POLE : L =  3                          0.0000000000000E+00
 ::: EXT EL-POLE : L =  4                          0.0000000000000E+00
 ::: EXT EL-SPHEROPOLE                             0.0000000000000E+00
 ::: BIELET ZONE E-E                               4.4646886755376E+01
 ::: TOTAL E-E                                     4.4646886755376E+01
 ::: TOTAL E-N + N-E                              -1.9927989400833E+02
 ::: TOTAL N-N                                     9.3374618658329E+00
 ::: KINETIC ENERGY                                7.5958538975802E+01
 ::: PSEUDO TOTAL   ENERGY                        -6.9337006411315E+01
 ::: VIRIAL COEFFICIENT                            1.0455728532272E+00
 TTTTTTTTTTTTTTTTTTTTTTTTTTTTTT TOTENY      TELAPSE       50.71 TCPU       35.71
 NUMERICALLY INTEGRATED DENSITY     10.0000021828
 TTTTTTTTTTTTTTTTTTTTTTTTTTTTTT NUMDFT      TELAPSE       52.12 TCPU       37.04
 CYC  23 ETOT(AU) -7.636663744751E+01 DETOT -2.28E-09 tst  5.35E-10 PX  5.74E-05

 == SCF ENDED - CONVERGENCE ON ENERGY      E(AU) -7.6366637447505E+01 CYCLES  23


 ENERGY EXPRESSION=HARTREE+FOCK EXCH*0.25000+(PBE    EXCH)*0.75000+PBE    CORR


 TOTAL ENERGY(DFT)(AU)( 23) -7.6366637447505E+01 DE-2.3E-09 tester 5.4E-10
 TTTTTTTTTTTTTTTTTTTTTTTTTTTTTT EDFT        TELAPSE       52.12 TCPU       37.04

 *******************************************************************************
 *                             FORCE CALCULATION                               *
 *******************************************************************************

 TTTTTTTTTTTTTTTTTTTTTTTTTTTTTT NUMDFG      TELAPSE       60.50 TCPU       43.89
 INFORMATION **** EXCPOG **** EXCH. BIPO BUFFER LENGTH (WORDS) =       10080
 WARNING **** EXCPOG **** EXCH. BIPO BUFFER TOO SMALL - TO AVOID I/O SET EXCHSIZE =        9576
 INFORMATION **** GENPOG **** BIPO BUFFER LENGTH (WORDS) =        6600
 TTTTTTTTTTTTTTTTTTTTTTTTTTTTTT SHELXG      TELAPSE       62.35 TCPU       45.02

 CARTESIAN FORCES IN HARTREE/BOHR (ANALYTICAL)
   ATOM                     X                   Y                   Z
   1   8             0.000000000000E+00  0.000000000000E+00 -2.720731160508E-02
   2   1             1.370477693501E-02  0.000000000000E+00  1.360365580269E-02
   3   1            -1.370477693501E-02 -3.252606517457E-18  1.360365580269E-02

 RESULTANT FORCE     0.000000000000E+00 -3.252606517457E-18  3.095301792655E-13

 SYMMETRY ALLOWED FORCES (ANALYTICAL) (DIRECTION, FORCE)

    1 -3.3322015E-02    2  1.9381481E-02
 TTTTTTTTTTTTTTTTTTTTTTTTTTTTTT TOTGRA      TELAPSE       62.37 TCPU       45.04
 INFORMATION **** opta001 **** GEOMETRY OUTPUT FILE
 CLASSICAL MODEL (SCHLEGEL) USED AS INITIAL HESSIAN MATRIX
 REFERENCE GEOMETRY DEFINED

 MAX GRADIENT      0.033322  THRESHOLD              0.000150 CONVERGED NO
 RMS GRADIENT      0.027258  THRESHOLD              0.000100 CONVERGED NO

 GRADIENT NORM     0.038549  GRADIENT THRESHOLD     0.500000

 EIGENVALUES OF THE ESTIMATED HESSIAN
  0.1690       1.043    

 INITIAL TRUST RADIUS    0.5000000000E+00

 PREDICTED ENERGY CHANGE    -0.717E-03

 INITIAL DISPLACEMENTS
 -0.035617  0.012770
 TTTTTTTTTTTTTTTTTTTTTTTTTTTTTT OPTI        TELAPSE       62.87 TCPU       45.04

 OPTOPTOPTOPTOPTOPTOPTOPTOPTOPTOPTOPTOPTOPTOPTOPTOPTOPTOPTOPTOPTOPTOPTOPTOPTOPT

 STARTING GEOMETRY OPTIMIZATION - INFORMATION ON SCF MOVED TO SCFOUT.LOG
 GEOMETRY OPTIMIZATION INFORMATION STORED IN OPTINFO.DAT

 OPTOPTOPTOPTOPTOPTOPTOPTOPTOPTOPTOPTOPTOPTOPTOPTOPTOPTOPTOPTOPTOPTOPTOPTOPTOPT
 *******************************************************************************
 COORDINATE OPTIMIZATION - POINT    2
 *******************************************************************************
 ATOMS IN THE ASYMMETRIC UNIT    2 - ATOMS IN THE UNIT CELL:    3
     ATOM          X(ANGSTROM)         Y(ANGSTROM)         Z(ANGSTROM)
 *******************************************************************************
   1 T   8 O     0.000000000000E+00  0.000000000000E+00 -1.538929011624E-02
   2 T   1 H     7.693937950204E-01  0.000000000000E+00  5.573138164051E-01
   3 F   1 H    -7.693937950204E-01  0.000000000000E+00  5.573138164051E-01

 T = ATOM BELONGING TO THE ASYMMETRIC UNIT

 TOTAL ENERGY(DFT)(AU)( 16) -7.6367423510913E+01     DE (AU)   -7.861E-04

 UPDATED TRUST RADIUS     0.100E+01

 SYMMETRY ALLOWED FORCES  (COORDINATE, FORCE)

    1 -4.2760696E-03    2  8.6105342E-05

 GRADIENT NORM     0.004277  GRADIENT THRESHOLD     0.500000

 EIGENVALUES OF THE ESTIMATED HESSIAN
  0.1637      0.9615    

 PREDICTED ENERGY CHANGE    -0.251E-04

 MAX GRADIENT      0.004276  THRESHOLD              0.000150 CONVERGED NO
 RMS GRADIENT      0.003024  THRESHOLD              0.000100 CONVERGED NO
 MAX DISPLAC.      0.011921  THRESHOLD              0.000450 CONVERGED NO
 RMS DISPLAC.      0.011000  THRESHOLD              0.000300 CONVERGED NO
 TTTTTTTTTTTTTTTTTTTTTTTTTTTTTT OPTI        TELAPSE      102.11 TCPU       79.99
 *******************************************************************************
 COORDINATE OPTIMIZATION - POINT    3
 *******************************************************************************
 ATOMS IN THE ASYMMETRIC UNIT    2 - ATOMS IN THE UNIT CELL:    3
     ATOM          X(ANGSTROM)         Y(ANGSTROM)         Z(ANGSTROM)
 *******************************************************************************
   1 T   8 O     0.000000000000E+00  0.000000000000E+00 -2.053991214644E-02
   2 T   1 H     7.656540056707E-01  0.000000000000E+00  5.598891274202E-01
   3 F   1 H    -7.656540056707E-01  0.000000000000E+00  5.598891274202E-01

 T = ATOM BELONGING TO THE ASYMMETRIC UNIT

 TOTAL ENERGY(DFT)(AU)( 10) -7.6367448142145E+01     DE (AU)   -2.463E-05

 UPDATED TRUST RADIUS     0.200E+01

 SYMMETRY ALLOWED FORCES  (COORDINATE, FORCE)

    1  1.0686637E-04    2  1.7645144E-05

 GRADIENT NORM     0.000108  GRADIENT THRESHOLD     0.500000

 EIGENVALUES OF THE ESTIMATED HESSIAN
  0.1679      0.9650    

 PREDICTED ENERGY CHANGE    -0.208E-07

 MAX GRADIENT      0.000107  THRESHOLD              0.000150 CONVERGED YES
 RMS GRADIENT      0.000077  THRESHOLD              0.000100 CONVERGED YES
 MAX DISPLAC.      0.000336  THRESHOLD              0.000450 CONVERGED YES
 RMS DISPLAC.      0.000331  THRESHOLD              0.000300 CONVERGED NO
 TTTTTTTTTTTTTTTTTTTTTTTTTTTTTT OPTI        TELAPSE      129.67 TCPU      105.05
 *******************************************************************************
 COORDINATE OPTIMIZATION - POINT    4
 *******************************************************************************
 ATOMS IN THE ASYMMETRIC UNIT    2 - ATOMS IN THE UNIT CELL:    3
     ATOM          X(ANGSTROM)         Y(ANGSTROM)         Z(ANGSTROM)
 *******************************************************************************
   1 T   8 O     0.000000000000E+00  0.000000000000E+00 -2.039474577582E-02
   2 T   1 H     7.657758126352E-01  0.000000000000E+00  5.598165442349E-01
   3 F   1 H    -7.657758126352E-01  0.000000000000E+00  5.598165442349E-01

 T = ATOM BELONGING TO THE ASYMMETRIC UNIT

 TOTAL ENERGY(DFT)(AU)(  3) -7.6367448159993E+01     DE (AU)   -1.785E-08

 UPDATED TRUST RADIUS     0.400E+01

 SYMMETRY ALLOWED FORCES  (COORDINATE, FORCE)

    1 -2.5945629E-05    2  1.4165248E-06

 GRADIENT NORM     0.000026  GRADIENT THRESHOLD     0.500000

 EIGENVALUES OF THE ESTIMATED HESSIAN
  0.1904       1.020    

 PREDICTED ENERGY CHANGE    -0.702E-09

 MAX GRADIENT      0.000026  THRESHOLD              0.000150 CONVERGED YES
 RMS GRADIENT      0.000018  THRESHOLD              0.000100 CONVERGED YES
 MAX DISPLAC.      0.000057  THRESHOLD              0.000450 CONVERGED YES
 RMS DISPLAC.      0.000051  THRESHOLD              0.000300 CONVERGED YES

 CONVERGENCE TESTS SATISFIED AFTER   4 ENERGY AND GRADIENT CALCULATIONS
++++++++++++++++++++++++++++++++++++++++++++++++++++++++++++++++++++++
 FINALRUN OPTION: RE-STARTING OPTIMIZATION
++++++++++++++++++++++++++++++++++++++++++++++++++++++++++++++++++++++
 TTTTTTTTTTTTTTTTTTTTTTTTTTTTTT OPTI        TELAPSE      150.40 TCPU      119.80
 *******************************************************************************
 COORDINATE OPTIMIZATION - POINT    5
 *******************************************************************************
 ATOMS IN THE ASYMMETRIC UNIT    2 - ATOMS IN THE UNIT CELL:    3
     ATOM          X(ANGSTROM)         Y(ANGSTROM)         Z(ANGSTROM)
 *******************************************************************************
   1 T   8 O     0.000000000000E+00  0.000000000000E+00 -2.041920251270E-02
   2 T   1 H     7.657587868396E-01  0.000000000000E+00  5.598287726033E-01
   3 F   1 H    -7.657587868396E-01  0.000000000000E+00  5.598287726033E-01

 T = ATOM BELONGING TO THE ASYMMETRIC UNIT

 ENERGY DIFFERENCE WITH RESPECT TO FIRST CALCULATION USING
 THE PRESENT REFERENCE GEOMETRY:  7.636744815999E+01

 MAXIMUM ATOM DISPLACEMENT WITH RESPECT TO
 THE PRESENT REFERENCE GEOMETRY:   3.858670062208E-02

 REFERENCE GEOMETRY WILL BE CHANGED

 TOTAL ENERGY(DFT)(AU)( 24) -7.6367448157895E+01     DE (AU)    2.098E-09

 SYMMETRY ALLOWED FORCES  (COORDINATE, FORCE)

    1 -1.2279868E-05    2  9.6518012E-07

 GRADIENT NORM     0.000012  GRADIENT THRESHOLD     0.500000

 HESSIAN UPDATE SKIPPED

 EIGENVALUES OF THE ESTIMATED HESSIAN
  0.1904       1.020    

 PREDICTED ENERGY CHANGE    -0.151E-09

 MAX GRADIENT      0.000012  THRESHOLD              0.000150 CONVERGED YES
 RMS GRADIENT      0.000009  THRESHOLD              0.000100 CONVERGED YES

 WARNINGWARNINGWARNINGWARNINGWARNINGWARNINGWARNINGWARNINGWARNINGWARNINGWARNING

 CONVERGENCE ON GRADIENT - NO CHANGE IN ENERGY FOR   2 STEPS

 CONVERGENCE TESTS SATISFIED AFTER   5 ENERGY AND GRADIENT CALCULATIONS

 WARNINGWARNINGWARNINGWARNINGWARNINGWARNINGWARNINGWARNINGWARNINGWARNINGWARNING


 ******************************************************************
 * OPT END - CONVERGED * E(AU):  -7.636744815789E+01  POINTS    5 *
 ******************************************************************


 NEIGHBORS OF THE NON-EQUIVALENT ATOMS

 N = NUMBER OF NEIGHBORS AT DISTANCE R
    ATOM  N     R/ANG      R/AU   NEIGHBORS (ATOM LABELS AND CELL INDICES)
   1 O    2     0.9608     1.8156   2 H    0 0 0   3 H    0 0 0

   2 H    1     0.9608     1.8156   1 O    0 0 0
   2 H    1     1.5315     2.8941   3 H    0 0 0

 MMMMMMMMMMMMMMMMMMMMMMMMMMMMMMMMMMMMMMMMMMMMMMMMMMMMMMMMMMMMMMMMMMMMMMMMMMMMMMM
     ALPHA+BETA ELECTRONS
 MULLIKEN POPULATION ANALYSIS - NO. OF ELECTRONS   10.000000

  ATOM    Z CHARGE  A.O. POPULATION

   1 O    8  8.661  1.999  0.532  0.630  0.876  0.733  0.995  0.471  0.667
                    0.557  0.278  0.165  0.432  0.307  0.005  0.011  0.004
                   -0.001  0.000
   2 H    1  0.669  0.489  0.140  0.017  0.010  0.013
   3 H    1  0.669  0.489  0.140  0.017  0.010  0.013

  ATOM    Z CHARGE  SHELL POPULATION

   1 O    8  8.661  1.999  2.771  2.690  1.182  0.019
   2 H    1  0.669  0.489  0.140  0.041
   3 H    1  0.669  0.489  0.140  0.041

 OVERLAP POPULATION CONDENSED TO ATOMS FOR FIRST   2 NEIGHBORS

 ATOM A   1 O    ATOM B     CELL      R(AB)/AU R(AB)/ANG    OVPOP(AB)
                  2 H    (  0  0  0)     1.816     0.961     0.296

 ATOM A   2 H    ATOM B     CELL      R(AB)/AU R(AB)/ANG    OVPOP(AB)
                  1 O    (  0  0  0)     1.816     0.961     0.296
                  3 H    (  0  0  0)     2.894     1.532    -0.021
 WARNING **** iordo **** not allocated - eigenvalues printing removed
 WARNING **** iordo **** not allocated - eigenvector printing removed
 EIGENVECTORS IN FORTRAN UNIT  8

 FINAL OPTIMIZED GEOMETRY - DIMENSIONALITY OF THE SYSTEM      0
 (NON PERIODIC DIRECTION: LATTICE PARAMETER FORMALLY SET TO 500)
 *******************************************************************************
 ATOMS IN THE ASYMMETRIC UNIT    2 - ATOMS IN THE UNIT CELL:    3
     ATOM          X(ANGSTROM)         Y(ANGSTROM)         Z(ANGSTROM)
 *******************************************************************************
   1 T   8 O     0.000000000000E+00  0.000000000000E+00 -2.041920251270E-02
   2 T   1 H     7.657587868396E-01  0.000000000000E+00  5.598287726033E-01
   3 F   1 H    -7.657587868396E-01  0.000000000000E+00  5.598287726033E-01

 T = ATOM BELONGING TO THE ASYMMETRIC UNIT
 INFORMATION **** fort.34 **** GEOMETRY OUTPUT FILE

 ****   4 SYMMOPS - TRANSLATORS IN FRACTIONAL UNITS
  V INV                   ROTATION MATRICES                       TRANSLATOR
  1  1  1.00  0.00  0.00  0.00  1.00  0.00  0.00  0.00  1.00    0.00  0.00  0.00
  2  2 -1.00  0.00  0.00  0.00 -1.00  0.00  0.00  0.00  1.00    0.00  0.00  0.00
  3  3 -1.00  0.00  0.00  0.00  1.00  0.00  0.00  0.00  1.00    0.00  0.00  0.00
  4  4  1.00  0.00  0.00  0.00 -1.00  0.00  0.00  0.00  1.00    0.00  0.00  0.00
 TTTTTTTTTTTTTTTTTTTTTTTTTTTTTT END         TELAPSE      208.56 TCPU      166.87
 EEEEEEEEEE TERMINATION  DATE 18 08 2013 TIME 14:19:39.5
