

 Parallel Execution: Process Information
 ==============================================================================
 Rank   Node Name                              NodeID   MyNodeRank  NodeMaster
    0   dingawonanke.local                        0          0          0
    1   dingawonanke.local                        0          1         -1
    2   dingawonanke.local                        0          2         -1
    3   dingawonanke.local                        0          3         -1
    4   dingawonanke.local                        0          4         -1
    5   dingawonanke.local                        0          5         -1
    6   dingawonanke.local                        0          6         -1
    7   dingawonanke.local                        0          7         -1
    8   dingawonanke.local                        0          8         -1
    9   dingawonanke.local                        0          9         -1
 ==============================================================================


May use up to 7812MB of RAM as shared memory on node 0

 *******************************************************************************
 *                                                                             *
 *  --------------------------------                                           *
 *   Amsterdam Modeling Suite (AMS)              2021.105                      *
 *  --------------------------------                                           *
 *                                               r98925 2021-11-25             *
 *                                                                             *
 *                                                                             *
 *                              =================                              *
 *                              |               |                              *
 *                              |     A M S     |                              *
 *                              |               |                              *
 *                              =================                              *
 *                                                                             *
 *                                                                             *
 *   Online information and documentation:  https://www.scm.com/support/       *
 *   E-mail:  support@scm.com   info@scm.com                                   *
 *                                                                             *
 *   Scientific publications using AMS results must be properly referenced     *
 *   See the User Manuals (or the web site) for recommended citations          *
 *   The terms and conditions of the End User License Agreement apply to       *
 *   the use of AMS, https://www.scm.com/license-terms/                        *
 *                                                                             *
 **********************  x86_64_darwin_intel / openmpi  ************************
 
 Licensed to: Dr Matt Addicoat /  Department of Chemistry and Physics, Nottingham Trent University 2023-06-06 10:08:00
 SCM User ID: u20241
  
 AMS 2021.105  RunTime: Jun06-2023 15:46:55  ShM Nodes: 1  Procs: 10

 AMS jobname: ams
 AMS jobid  : 309917782

 Start   directory: /Users/Dinga_1/OneDrive - Nottingham Trent University/Examples_ams/dftb_MD/tmp.Dinga.55479.0.noindex/
 Results directory: /Users/Dinga_1/OneDrive - Nottingham Trent University/Examples_ams/dftb_MD/dftb_MD.results/
 Scratch directory: /Users/Dinga_1/src/ams_scratch/amstmp_ams_kid0.309917782/


 Communication costs MPI_COMM_WORLD:      0.807 usec per message,   0.0288 usec per 8-byte item
 Communication costs for intra-node:      0.793 usec per message,   0.0337 usec per 8-byte item

 RNG seed: -1742450896 -918356978 -2017093061 -58332673 -1139717898 -564236396 1192078507 -1860920129
       ***********************
       *  MOLECULAR DYNAMICS *
       ***********************

 
-------------------------------------------
Molecular Dynamics Configuration Parameters
-------------------------------------------
Number of steps                         1000
Time per step (fs)                    0.2500
Thermostat                 Nose-Hoover chain
  Tau (fs)                            0.1000
  Chain length                            10
  Temperature (K)                        571.1500
Barostat                                None
Preserve                           AngularMomentum TotalMomentum
Checkpoint frequency                       1
Trajectory sampling frequency              1
Printing frequency                         1
Initial Velocities                     Random
Initial Velocities Temperature (K)       571.1500
 
-------------------------
DFTB Engine configuration
-------------------------
DFTB Resources dir                     /Applications/AMS2021.105.app/Contents/Resources/amshome/atomicdata/DFTB/GFN1-xTB
 
SCC convergence enabled.
Maximum SCC cycles                       500
SCC charge convergence                   0.000000010000
SCC charge mixing                        0.150000000000
DIIS max dimension                       20
DIIS maximum coeff.                     10.000000000000
Adaptive SCC charge mixing             T
Adaptive SCC mixing strategy              3
Spin polarization                      F
Orbital-dependent SCC                  T
Orbital fill strategy                  Fermi
Fermi temperature (kelvin)                     300.0000
  ... kT (Hartree)                               0.0010
Use of symmetry                        T
Radial function extrapolation method   Auto

 Settings for Grimme D3 dispersion correction

      damping                        BJ
      s6                          1.000
      s8                          2.400
      a1                          0.630
      a2                          5.000

 Other (technical) parameters

      alpha                      14.000
      version                         4
 

---------------------
Periodic DFTB options
---------------------
 kpoints config
 grid method with params
Assume insulator                        F
Ewald tolerance                    1.00E-10
Ewald range factor                  2.00

 BZStruct config
 ---------------
 Enabled        T
 Automatic      T
 CalcFatBands   T
 useSymmetry    T
 deltaK          0.100000000000000     
 
 
--------------------
 Molecular Dynamics 
--------------------
 
          Step       Time    Temp.         E Tot         E Pot         E Kin  <Temp.>       <E Tot>       <E Pot>       <E Kin>
                     (fs)      (K)          (au)          (au)          (au)      (K)          (au)          (au)          (au)
 
             0       0.00     567.     -23.03569     -23.06802       0.03233     567.     -23.03569     -23.06802       0.03233
             1       0.25     562.     -23.03731     -23.06934       0.03203     565.     -23.03650     -23.06868       0.03218
             2       0.50     628.     -23.03438     -23.07018       0.03579     586.     -23.03579     -23.06918       0.03339
             3       0.75     444.     -23.04530     -23.07060       0.02530     550.     -23.03817     -23.06953       0.03136
             4       1.00     837.     -23.02285     -23.07056       0.04771     608.     -23.03511     -23.06974       0.03463
             5       1.25     505.     -23.04148     -23.07027       0.02879     590.     -23.03617     -23.06983       0.03366
             6       1.50     987.     -23.01352     -23.06976       0.05624     647.     -23.03293     -23.06982       0.03689
             7       1.75     532.     -23.03894     -23.06929       0.03035     633.     -23.03368     -23.06975       0.03607
             8       2.00     473.     -23.04173     -23.06870       0.02697     615.     -23.03458     -23.06964       0.03506
             9       2.25     637.     -23.03207     -23.06839       0.03633     617.     -23.03433     -23.06951       0.03518
            10       2.50     454.     -23.04226     -23.06813       0.02587     602.     -23.03505     -23.06939       0.03434
            11       2.75     824.     -23.02089     -23.06784       0.04695     621.     -23.03387     -23.06926       0.03539
            12       3.00     487.     -23.03985     -23.06759       0.02775     611.     -23.03433     -23.06913       0.03480
            13       3.25     596.     -23.03330     -23.06726       0.03396     609.     -23.03425     -23.06900       0.03474
            14       3.50     489.     -23.03925     -23.06714       0.02790     601.     -23.03459     -23.06887       0.03428
            15       3.75     549.     -23.03591     -23.06722       0.03131     598.     -23.03467     -23.06877       0.03410
            16       4.00     660.     -23.02977     -23.06740       0.03763     602.     -23.03438     -23.06869       0.03431
            17       4.25     451.     -23.04210     -23.06778       0.02568     593.     -23.03481     -23.06864       0.03383
            18       4.50     666.     -23.03019     -23.06816       0.03797     597.     -23.03457     -23.06861       0.03405
            19       4.75     409.     -23.04543     -23.06875       0.02332     588.     -23.03511     -23.06862       0.03351
            20       5.00     713.     -23.02886     -23.06950       0.04064     594.     -23.03481     -23.06866       0.03385
            21       5.25     500.     -23.04179     -23.07029       0.02850     590.     -23.03513     -23.06874       0.03361
            22       5.50     565.     -23.03923     -23.07141       0.03218     588.     -23.03531     -23.06885       0.03354
            23       5.75     530.     -23.04217     -23.07237       0.03020     586.     -23.03559     -23.06900       0.03340
            24       6.00     498.     -23.04556     -23.07397       0.02841     583.     -23.03599     -23.06920       0.03320
            25       6.25     877.     -23.02511     -23.07509       0.04997     594.     -23.03557     -23.06942       0.03385
            26       6.50     483.     -23.04857     -23.07610       0.02753     590.     -23.03606     -23.06967       0.03362
            27       6.75     834.     -23.02905     -23.07656       0.04751     598.     -23.03581     -23.06992       0.03411
            28       7.00     462.     -23.05010     -23.07646       0.02636     594.     -23.03630     -23.07014       0.03384
            29       7.25     607.     -23.04110     -23.07568       0.03458     594.     -23.03646     -23.07033       0.03387
            30       7.50     586.     -23.04101     -23.07439       0.03338     594.     -23.03661     -23.07046       0.03385
            31       7.75     492.     -23.04391     -23.07196       0.02805     591.     -23.03683     -23.07051       0.03367
            32       8.00     717.     -23.02927     -23.07012       0.04085     595.     -23.03660     -23.07049       0.03389
            33       8.25     545.     -23.03716     -23.06824       0.03108     593.     -23.03662     -23.07043       0.03381
            34       8.50     781.     -23.02246     -23.06698       0.04453     598.     -23.03622     -23.07033       0.03411
            35       8.75     412.     -23.04283     -23.06634       0.02351     593.     -23.03640     -23.07022       0.03382
            36       9.00     696.     -23.02656     -23.06626       0.03970     596.     -23.03613     -23.07011       0.03398
            37       9.25     491.     -23.03867     -23.06666       0.02799     593.     -23.03620     -23.07002       0.03382
            38       9.50     566.     -23.03521     -23.06746       0.03225     593.     -23.03618     -23.06995       0.03378
            39       9.75     647.     -23.03117     -23.06803       0.03687     594.     -23.03605     -23.06991       0.03386
            40      10.00     463.     -23.04211     -23.06852       0.02642     591.     -23.03620     -23.06987       0.03368
            41      10.25     720.     -23.02763     -23.06870       0.04106     594.     -23.03599     -23.06984       0.03385
            42      10.50     353.     -23.04889     -23.06899       0.02010     588.     -23.03629     -23.06983       0.03353
            43      10.75     616.     -23.03433     -23.06945       0.03512     589.     -23.03625     -23.06982       0.03357
            44      11.00     377.     -23.04856     -23.07003       0.02147     584.     -23.03652     -23.06982       0.03330
            45      11.25     740.     -23.02843     -23.07060       0.04216     588.     -23.03635     -23.06984       0.03349
            46      11.50     493.     -23.04311     -23.07120       0.02809     586.     -23.03649     -23.06987       0.03338
            47      11.75     625.     -23.03602     -23.07165       0.03563     586.     -23.03648     -23.06990       0.03342
            48      12.00     505.     -23.04308     -23.07187       0.02880     585.     -23.03662     -23.06994       0.03333
            49      12.25     531.     -23.04165     -23.07192       0.03027     584.     -23.03672     -23.06998       0.03327
            50      12.50     807.     -23.02559     -23.07158       0.04600     588.     -23.03650     -23.07002       0.03352
            51      12.75     461.     -23.04455     -23.07080       0.02626     586.     -23.03665     -23.07003       0.03338
            52      13.00     674.     -23.03121     -23.06962       0.03841     587.     -23.03655     -23.07002       0.03347
            53      13.25     388.     -23.04651     -23.06860       0.02209     584.     -23.03673     -23.07000       0.03326
            54      13.50     599.     -23.03306     -23.06720       0.03414     584.     -23.03667     -23.06995       0.03328
            55      13.75     637.     -23.02984     -23.06618       0.03634     585.     -23.03655     -23.06988       0.03333
            56      14.00     459.     -23.03884     -23.06503       0.02619     583.     -23.03659     -23.06979       0.03321
            57      14.25     950.     -23.01019     -23.06433       0.05414     589.     -23.03613     -23.06970       0.03357
            58      14.50     446.     -23.03881     -23.06424       0.02543     586.     -23.03618     -23.06961       0.03343
            59      14.75     614.     -23.02984     -23.06481       0.03497     587.     -23.03607     -23.06953       0.03346
            60      15.00     537.     -23.03524     -23.06586       0.03062     586.     -23.03606     -23.06947       0.03341
            61      15.25     554.     -23.03646     -23.06803       0.03158     586.     -23.03606     -23.06944       0.03338
            62      15.50     587.     -23.03673     -23.07019       0.03346     586.     -23.03607     -23.06946       0.03338
            63      15.75     409.     -23.04903     -23.07231       0.02329     583.     -23.03628     -23.06950       0.03322
            64      16.00     740.     -23.03212     -23.07430       0.04218     585.     -23.03621     -23.06957       0.03336
            65      16.25     539.     -23.04487     -23.07562       0.03075     585.     -23.03634     -23.06967       0.03332
            66      16.50     724.     -23.03511     -23.07637       0.04126     587.     -23.03633     -23.06977       0.03344
            67      16.75     434.     -23.05185     -23.07657       0.02473     584.     -23.03655     -23.06987       0.03331
            68      17.00     660.     -23.03851     -23.07614       0.03762     585.     -23.03658     -23.06996       0.03337
            69      17.25     566.     -23.04311     -23.07536       0.03225     585.     -23.03668     -23.07003       0.03336
            70      17.50     465.     -23.04724     -23.07376       0.02652     584.     -23.03682     -23.07009       0.03326
            71      17.75     713.     -23.03185     -23.07249       0.04064     585.     -23.03676     -23.07012       0.03336
            72      18.00     498.     -23.04272     -23.07110       0.02838     584.     -23.03684     -23.07013       0.03330
            73      18.25     871.     -23.02006     -23.06973       0.04967     588.     -23.03661     -23.07013       0.03352
            74      18.50     439.     -23.04357     -23.06860       0.02502     586.     -23.03670     -23.07011       0.03340
            75      18.75     619.     -23.03213     -23.06741       0.03529     586.     -23.03664     -23.07007       0.03343
            76      19.00     391.     -23.04439     -23.06667       0.02228     584.     -23.03674     -23.07003       0.03328
            77      19.25     557.     -23.03418     -23.06594       0.03176     584.     -23.03671     -23.06997       0.03326
            78      19.50     657.     -23.02822     -23.06568       0.03746     584.     -23.03660     -23.06992       0.03332
            79      19.75     366.     -23.04502     -23.06587       0.02086     582.     -23.03671     -23.06987       0.03316
            80      20.00     643.     -23.02978     -23.06645       0.03667     583.     -23.03662     -23.06983       0.03321
            81      20.25     336.     -23.04838     -23.06754       0.01916     580.     -23.03677     -23.06980       0.03303
            82      20.50     613.     -23.03376     -23.06873       0.03496     580.     -23.03673     -23.06979       0.03306
            83      20.75     435.     -23.04575     -23.07054       0.02479     578.     -23.03684     -23.06980       0.03296
            84      21.00     713.     -23.03126     -23.07193       0.04067     580.     -23.03677     -23.06982       0.03305
            85      21.25     440.     -23.04844     -23.07353       0.02509     578.     -23.03691     -23.06986       0.03296
            86      21.50     608.     -23.03985     -23.07451       0.03466     579.     -23.03694     -23.06992       0.03298
            87      21.75     302.     -23.05778     -23.07501       0.01723     575.     -23.03718     -23.06998       0.03280
            88      22.00     653.     -23.03779     -23.07503       0.03724     576.     -23.03718     -23.07003       0.03285
            89      22.25     440.     -23.04952     -23.07459       0.02507     575.     -23.03732     -23.07008       0.03276
            90      22.50     708.     -23.03306     -23.07343       0.04036     576.     -23.03728     -23.07012       0.03284
            91      22.75     488.     -23.04431     -23.07210       0.02780     575.     -23.03735     -23.07014       0.03279
            92      23.00     650.     -23.03318     -23.07021       0.03704     576.     -23.03731     -23.07014       0.03284
            93      23.25     411.     -23.04511     -23.06855       0.02345     574.     -23.03739     -23.07013       0.03274
            94      23.50     574.     -23.03372     -23.06641       0.03270     574.     -23.03735     -23.07009       0.03273
            95      23.75     642.     -23.02828     -23.06489       0.03661     575.     -23.03726     -23.07003       0.03278
            96      24.00     433.     -23.03881     -23.06348       0.02467     574.     -23.03727     -23.06996       0.03269
            97      24.25     854.     -23.01418     -23.06285       0.04867     576.     -23.03704     -23.06989       0.03285
            98      24.50     504.     -23.03434     -23.06304       0.02870     576.     -23.03701     -23.06982       0.03281
            99      24.75     581.     -23.03088     -23.06398       0.03310     576.     -23.03695     -23.06976       0.03282
           100      25.00     592.     -23.03151     -23.06523       0.03372     576.     -23.03689     -23.06972       0.03282
           101      25.25     511.     -23.03824     -23.06739       0.02915     575.     -23.03691     -23.06970       0.03279
           102      25.50     908.     -23.01743     -23.06919       0.05176     578.     -23.03672     -23.06969       0.03297
           103      25.75     494.     -23.04290     -23.07106       0.02816     578.     -23.03678     -23.06970       0.03293
           104      26.00     650.     -23.03559     -23.07265       0.03706     578.     -23.03677     -23.06973       0.03297
           105      26.25     544.     -23.04274     -23.07376       0.03102     578.     -23.03682     -23.06977       0.03295
           106      26.50     586.     -23.04145     -23.07484       0.03338     578.     -23.03687     -23.06982       0.03295
           107      26.75     605.     -23.04072     -23.07522       0.03450     578.     -23.03690     -23.06987       0.03297
           108      27.00     466.     -23.04868     -23.07525       0.02657     577.     -23.03701     -23.06992       0.03291
           109      27.25     925.     -23.02225     -23.07500       0.05275     580.     -23.03688     -23.06996       0.03309
           110      27.50     489.     -23.04652     -23.07441       0.02790     580.     -23.03696     -23.07000       0.03304
           111      27.75    1177.     -23.00634     -23.07342       0.06708     585.     -23.03669     -23.07003       0.03334
           112      28.00     508.     -23.04314     -23.07208       0.02894     584.     -23.03675     -23.07005       0.03331
           113      28.25     963.     -23.01561     -23.07048       0.05487     588.     -23.03656     -23.07006       0.03349
           114      28.50     503.     -23.04045     -23.06911       0.02867     587.     -23.03659     -23.07005       0.03345
           115      28.75     411.     -23.04420     -23.06765       0.02345     585.     -23.03666     -23.07003       0.03337
           116      29.00     609.     -23.03239     -23.06709       0.03469     586.     -23.03662     -23.07000       0.03338
           117      29.25     454.     -23.04119     -23.06710       0.02591     584.     -23.03666     -23.06998       0.03331
           118      29.50     782.     -23.02307     -23.06765       0.04458     586.     -23.03655     -23.06996       0.03341
           119      29.75     430.     -23.04424     -23.06877       0.02452     585.     -23.03661     -23.06995       0.03334
           120      30.00     650.     -23.03327     -23.07030       0.03704     585.     -23.03658     -23.06995       0.03337
           121      30.25     529.     -23.04142     -23.07160       0.03018     585.     -23.03662     -23.06996       0.03334
           122      30.50     603.     -23.03887     -23.07324       0.03437     585.     -23.03664     -23.06999       0.03335
           123      30.75     523.     -23.04472     -23.07455       0.02982     585.     -23.03671     -23.07003       0.03332
           124      31.00     716.     -23.03479     -23.07560       0.04081     586.     -23.03669     -23.07007       0.03338
           125      31.25     381.     -23.05461     -23.07635       0.02174     584.     -23.03683     -23.07012       0.03329
           126      31.50     640.     -23.04021     -23.07672       0.03651     584.     -23.03686     -23.07017       0.03331
           127      31.75     556.     -23.04495     -23.07663       0.03168     584.     -23.03692     -23.07022       0.03330
           128      32.00     511.     -23.04656     -23.07568       0.02911     584.     -23.03700     -23.07027       0.03327
           129      32.25     758.     -23.03121     -23.07440       0.04319     585.     -23.03695     -23.07030       0.03334
           130      32.50     361.     -23.05219     -23.07274       0.02055     583.     -23.03707     -23.07032       0.03325
           131      32.75     635.     -23.03452     -23.07072       0.03621     584.     -23.03705     -23.07032       0.03327
           132      33.00     285.     -23.05264     -23.06888       0.01625     581.     -23.03717     -23.07031       0.03314
           133      33.25     678.     -23.02861     -23.06729       0.03868     582.     -23.03710     -23.07029       0.03318
           134      33.50     368.     -23.04509     -23.06609       0.02100     581.     -23.03716     -23.07026       0.03309
           135      33.75     658.     -23.02761     -23.06511       0.03750     581.     -23.03709     -23.07022       0.03312
           136      34.00     568.     -23.03241     -23.06481       0.03239     581.     -23.03706     -23.07018       0.03312
           137      34.25     408.     -23.04177     -23.06502       0.02324     580.     -23.03709     -23.07014       0.03305
           138      34.50     638.     -23.02926     -23.06562       0.03636     580.     -23.03704     -23.07011       0.03307
           139      34.75     473.     -23.03992     -23.06691       0.02698     579.     -23.03706     -23.07009       0.03303
           140      35.00     516.     -23.03876     -23.06817       0.02941     579.     -23.03707     -23.07007       0.03300
           141      35.25     510.     -23.04123     -23.07028       0.02906     578.     -23.03710     -23.07007       0.03297
           142      35.50     997.     -23.01509     -23.07194       0.05685     581.     -23.03695     -23.07009       0.03314
           143      35.75     510.     -23.04454     -23.07364       0.02910     581.     -23.03700     -23.07011       0.03311
           144      36.00     735.     -23.03309     -23.07501       0.04192     582.     -23.03697     -23.07014       0.03317
           145      36.25     461.     -23.04966     -23.07592       0.02626     581.     -23.03706     -23.07018       0.03313
           146      36.50     627.     -23.04081     -23.07654       0.03573     581.     -23.03708     -23.07023       0.03314
           147      36.75     568.     -23.04406     -23.07644       0.03239     581.     -23.03713     -23.07027       0.03314
           148      37.00     553.     -23.04398     -23.07547       0.03150     581.     -23.03718     -23.07030       0.03313
           149      37.25     658.     -23.03675     -23.07426       0.03751     582.     -23.03717     -23.07033       0.03316
           150      37.50     526.     -23.04231     -23.07228       0.02997     581.     -23.03721     -23.07034       0.03314
           151      37.75     832.     -23.02265     -23.07009       0.04743     583.     -23.03711     -23.07034       0.03323
           152      38.00     424.     -23.04362     -23.06776       0.02415     582.     -23.03715     -23.07033       0.03317
           153      38.25     663.     -23.02763     -23.06542       0.03779     582.     -23.03709     -23.07029       0.03320
           154      38.50     328.     -23.04572     -23.06443       0.01871     581.     -23.03715     -23.07026       0.03311
           155      38.75     653.     -23.02681     -23.06403       0.03722     581.     -23.03708     -23.07022       0.03313
           156      39.00     234.     -23.05104     -23.06440       0.01336     579.     -23.03717     -23.07018       0.03301
           157      39.25     685.     -23.02643     -23.06545       0.03902     580.     -23.03710     -23.07015       0.03305
           158      39.50     361.     -23.04647     -23.06704       0.02057     578.     -23.03716     -23.07013       0.03297
           159      39.75     696.     -23.02899     -23.06866       0.03967     579.     -23.03711     -23.07012       0.03301
           160      40.00     450.     -23.04528     -23.07092       0.02564     578.     -23.03716     -23.07013       0.03296
           161      40.25     810.     -23.02671     -23.07287       0.04617     580.     -23.03710     -23.07014       0.03304
           162      40.50     530.     -23.04418     -23.07440       0.03022     579.     -23.03714     -23.07017       0.03303
           163      40.75     562.     -23.04361     -23.07568       0.03206     579.     -23.03718     -23.07020       0.03302
           164      41.00     482.     -23.04888     -23.07636       0.02748     579.     -23.03725     -23.07024       0.03299
           165      41.25     510.     -23.04781     -23.07685       0.02904     578.     -23.03731     -23.07028       0.03296
           166      41.50     748.     -23.03408     -23.07674       0.04266     579.     -23.03730     -23.07032       0.03302
           167      41.75     415.     -23.05244     -23.07610       0.02367     578.     -23.03739     -23.07035       0.03297
           168      42.00     663.     -23.03726     -23.07503       0.03777     579.     -23.03738     -23.07038       0.03300
           169      42.25     303.     -23.05652     -23.07378       0.01726     577.     -23.03750     -23.07040       0.03290
           170      42.50     670.     -23.03393     -23.07215       0.03821     578.     -23.03748     -23.07041       0.03293
           171      42.75     358.     -23.05005     -23.07045       0.02040     576.     -23.03755     -23.07041       0.03286
           172      43.00     619.     -23.03283     -23.06811       0.03528     577.     -23.03752     -23.07040       0.03287
           173      43.25     656.     -23.02896     -23.06637       0.03741     577.     -23.03747     -23.07037       0.03290
           174      43.50     531.     -23.03402     -23.06426       0.03024     577.     -23.03745     -23.07034       0.03289
           175      43.75    1024.     -23.00448     -23.06283       0.05835     579.     -23.03727     -23.07030       0.03303
           176      44.00     478.     -23.03463     -23.06187       0.02724     579.     -23.03725     -23.07025       0.03300
           177      44.25     841.     -23.01379     -23.06175       0.04797     580.     -23.03712     -23.07020       0.03308
           178      44.50     474.     -23.03559     -23.06260       0.02701     580.     -23.03711     -23.07016       0.03305
           179      44.75     573.     -23.03212     -23.06478       0.03267     580.     -23.03708     -23.07013       0.03305
           180      45.00     581.     -23.03397     -23.06710       0.03313     580.     -23.03707     -23.07011       0.03305
           181      45.25     450.     -23.04385     -23.06950       0.02564     579.     -23.03710     -23.07011       0.03301
           182      45.50     656.     -23.03471     -23.07207       0.03737     579.     -23.03709     -23.07012       0.03303
           183      45.75     581.     -23.04049     -23.07363       0.03314     579.     -23.03711     -23.07014       0.03303
           184      46.00     323.     -23.05653     -23.07495       0.01841     578.     -23.03721     -23.07016       0.03295
           185      46.25     623.     -23.03984     -23.07534       0.03550     578.     -23.03723     -23.07019       0.03296
           186      46.50     391.     -23.05282     -23.07511       0.02229     577.     -23.03731     -23.07022       0.03291
           187      46.75     499.     -23.04622     -23.07465       0.02843     577.     -23.03736     -23.07024       0.03288
           188      47.00     530.     -23.04317     -23.07338       0.03021     577.     -23.03739     -23.07026       0.03287
           189      47.25     360.     -23.05170     -23.07224       0.02054     575.     -23.03746     -23.07027       0.03280
           190      47.50     589.     -23.03673     -23.07032       0.03359     576.     -23.03746     -23.07027       0.03281
           191      47.75     397.     -23.04617     -23.06879       0.02262     575.     -23.03751     -23.07026       0.03276
           192      48.00     566.     -23.03448     -23.06672       0.03224     575.     -23.03749     -23.07024       0.03275
           193      48.25     743.     -23.02292     -23.06526       0.04234     575.     -23.03741     -23.07022       0.03280
           194      48.50     482.     -23.03624     -23.06373       0.02749     575.     -23.03741     -23.07018       0.03278
           195      48.75     813.     -23.01625     -23.06262       0.04637     576.     -23.03730     -23.07015       0.03284
           196      49.00     416.     -23.03822     -23.06195       0.02373     575.     -23.03731     -23.07010       0.03280
           197      49.25     670.     -23.02360     -23.06179       0.03819     576.     -23.03724     -23.07006       0.03283
           198      49.50     547.     -23.03103     -23.06223       0.03120     576.     -23.03721     -23.07002       0.03282
           199      49.75     764.     -23.01975     -23.06333       0.04358     577.     -23.03712     -23.06999       0.03287
           200      50.00     581.     -23.03155     -23.06469       0.03314     577.     -23.03709     -23.06996       0.03287
           201      50.25     465.     -23.04037     -23.06686       0.02648     576.     -23.03711     -23.06995       0.03284
           202      50.50     935.     -23.01550     -23.06880       0.05330     578.     -23.03700     -23.06994       0.03294
           203      50.75     519.     -23.04158     -23.07115       0.02957     578.     -23.03702     -23.06995       0.03292
           204      51.00     700.     -23.03343     -23.07331       0.03988     578.     -23.03700     -23.06996       0.03296
           205      51.25     463.     -23.04861     -23.07501       0.02640     578.     -23.03706     -23.06999       0.03293
           206      51.50     637.     -23.04049     -23.07679       0.03630     578.     -23.03708     -23.07002       0.03294
           207      51.75     574.     -23.04486     -23.07756       0.03270     578.     -23.03712     -23.07006       0.03294
           208      52.00     537.     -23.04697     -23.07756       0.03059     578.     -23.03716     -23.07009       0.03293
           209      52.25     711.     -23.03624     -23.07677       0.04053     578.     -23.03716     -23.07013       0.03297
           210      52.50     372.     -23.05393     -23.07515       0.02122     577.     -23.03724     -23.07015       0.03291
           211      52.75     582.     -23.03990     -23.07309       0.03320     577.     -23.03725     -23.07016       0.03291
           212      53.00     553.     -23.03898     -23.07049       0.03151     577.     -23.03726     -23.07016       0.03291
           213      53.25     620.     -23.03218     -23.06750       0.03532     577.     -23.03723     -23.07015       0.03292
           214      53.50     422.     -23.04131     -23.06538       0.02408     577.     -23.03725     -23.07013       0.03288
           215      53.75     538.     -23.03262     -23.06326       0.03064     577.     -23.03723     -23.07010       0.03287
           216      54.00     838.     -23.01460     -23.06239       0.04780     578.     -23.03713     -23.07006       0.03293
           217      54.25     536.     -23.03198     -23.06256       0.03058     578.     -23.03710     -23.07003       0.03292
           218      54.50     696.     -23.02401     -23.06366       0.03965     578.     -23.03704     -23.07000       0.03295
           219      54.75     383.     -23.04374     -23.06559       0.02185     577.     -23.03707     -23.06998       0.03290
           220      55.00     692.     -23.02861     -23.06807       0.03946     578.     -23.03704     -23.06997       0.03293
           221      55.25     563.     -23.03831     -23.07043       0.03212     578.     -23.03704     -23.06997       0.03293
           222      55.50     558.     -23.04084     -23.07264       0.03180     578.     -23.03706     -23.06998       0.03293
           223      55.75     633.     -23.03828     -23.07433       0.03605     578.     -23.03706     -23.07000       0.03294
           224      56.00     423.     -23.05162     -23.07575       0.02412     577.     -23.03713     -23.07003       0.03290
           225      56.25     755.     -23.03325     -23.07629       0.04304     578.     -23.03711     -23.07006       0.03294
           226      56.50     414.     -23.05282     -23.07643       0.02362     577.     -23.03718     -23.07009       0.03290
           227      56.75     653.     -23.03884     -23.07604       0.03720     578.     -23.03719     -23.07011       0.03292
           228      57.00     568.     -23.04298     -23.07534       0.03236     578.     -23.03721     -23.07013       0.03292
           229      57.25     418.     -23.04999     -23.07383       0.02384     577.     -23.03727     -23.07015       0.03288
           230      57.50     648.     -23.03542     -23.07237       0.03695     577.     -23.03726     -23.07016       0.03290
           231      57.75     523.     -23.04074     -23.07054       0.02981     577.     -23.03728     -23.07016       0.03288
           232      58.00     927.     -23.01568     -23.06851       0.05283     578.     -23.03718     -23.07015       0.03297
           233      58.25     448.     -23.04133     -23.06684       0.02551     578.     -23.03720     -23.07014       0.03294
           234      58.50     609.     -23.03029     -23.06499       0.03471     578.     -23.03717     -23.07012       0.03295
           235      58.75     577.     -23.03089     -23.06377       0.03288     578.     -23.03715     -23.07009       0.03295
           236      59.00     631.     -23.02684     -23.06282       0.03598     578.     -23.03710     -23.07006       0.03296
           237      59.25     626.     -23.02710     -23.06278       0.03568     578.     -23.03706     -23.07003       0.03297
           238      59.50     357.     -23.04337     -23.06373       0.02035     577.     -23.03709     -23.07000       0.03292
           239      59.75     666.     -23.02730     -23.06528       0.03798     578.     -23.03705     -23.06998       0.03294
           240      60.00     561.     -23.03569     -23.06767       0.03198     578.     -23.03704     -23.06997       0.03293
           241      60.25     541.     -23.03967     -23.07051       0.03083     578.     -23.03705     -23.06998       0.03293
           242      60.50     551.     -23.04149     -23.07291       0.03142     578.     -23.03707     -23.06999       0.03292
           243      60.75     515.     -23.04701     -23.07634       0.02934     577.     -23.03711     -23.07001       0.03290
           244      61.00     595.     -23.04484     -23.07874       0.03390     577.     -23.03714     -23.07005       0.03291
           245      61.25     491.     -23.05263     -23.08064       0.02801     577.     -23.03720     -23.07009       0.03289
           246      61.50     735.     -23.03984     -23.08171       0.04187     578.     -23.03722     -23.07014       0.03293
           247      61.75     375.     -23.06073     -23.08209       0.02136     577.     -23.03731     -23.07019       0.03288
           248      62.00     624.     -23.04619     -23.08173       0.03554     577.     -23.03735     -23.07023       0.03289
           249      62.25     423.     -23.05649     -23.08060       0.02411     576.     -23.03742     -23.07028       0.03285
           250      62.50     762.     -23.03554     -23.07898       0.04344     577.     -23.03741     -23.07031       0.03290
           251      62.75     438.     -23.05209     -23.07704       0.02495     577.     -23.03747     -23.07034       0.03286
           252      63.00     623.     -23.03916     -23.07468       0.03553     577.     -23.03748     -23.07035       0.03288
           253      63.25     458.     -23.04668     -23.07279       0.02611     576.     -23.03752     -23.07036       0.03285
           254      63.50     556.     -23.03920     -23.07090       0.03171     576.     -23.03752     -23.07037       0.03284
           255      63.75     576.     -23.03731     -23.07015       0.03284     576.     -23.03752     -23.07037       0.03284
           256      64.00     519.     -23.04070     -23.07027       0.02957     576.     -23.03753     -23.07037       0.03283
           257      64.25     571.     -23.03864     -23.07118       0.03254     576.     -23.03754     -23.07037       0.03283
           258      64.50     509.     -23.04420     -23.07323       0.02903     576.     -23.03756     -23.07038       0.03282
           259      64.75     627.     -23.03949     -23.07522       0.03573     576.     -23.03757     -23.07040       0.03283
           260      65.00     375.     -23.05579     -23.07718       0.02139     575.     -23.03764     -23.07042       0.03278
           261      65.25     660.     -23.04178     -23.07941       0.03764     575.     -23.03766     -23.07046       0.03280
           262      65.50     528.     -23.05089     -23.08100       0.03011     575.     -23.03771     -23.07050       0.03279
           263      65.75     631.     -23.04636     -23.08231       0.03595     575.     -23.03774     -23.07054       0.03280
           264      66.00     584.     -23.04970     -23.08301       0.03331     576.     -23.03779     -23.07059       0.03281
           265      66.25     567.     -23.05117     -23.08349       0.03233     575.     -23.03784     -23.07064       0.03280
           266      66.50     719.     -23.04241     -23.08340       0.04099     576.     -23.03785     -23.07069       0.03283
           267      66.75     486.     -23.05488     -23.08257       0.02769     576.     -23.03792     -23.07073       0.03281
           268      67.00     761.     -23.03796     -23.08132       0.04336     576.     -23.03792     -23.07077       0.03285
           269      67.25     377.     -23.05824     -23.07974       0.02150     576.     -23.03799     -23.07080       0.03281
           270      67.50     644.     -23.04082     -23.07753       0.03671     576.     -23.03800     -23.07083       0.03283
           271      67.75     472.     -23.04863     -23.07553       0.02691     575.     -23.03804     -23.07085       0.03280
           272      68.00     513.     -23.04346     -23.07270       0.02924     575.     -23.03806     -23.07085       0.03279
           273      68.25     722.     -23.02943     -23.07057       0.04114     576.     -23.03803     -23.07085       0.03282
           274      68.50     357.     -23.04827     -23.06863       0.02036     575.     -23.03807     -23.07084       0.03278
           275      68.75     685.     -23.02851     -23.06753       0.03902     575.     -23.03803     -23.07083       0.03280
           276      69.00     386.     -23.04534     -23.06732       0.02198     575.     -23.03806     -23.07082       0.03276
           277      69.25     637.     -23.03167     -23.06801       0.03633     575.     -23.03804     -23.07081       0.03277
           278      69.50     602.     -23.03487     -23.06920       0.03433     575.     -23.03802     -23.07080       0.03278
           279      69.75     573.     -23.03893     -23.07158       0.03266     575.     -23.03803     -23.07081       0.03278
           280      70.00     664.     -23.03539     -23.07324       0.03785     575.     -23.03802     -23.07081       0.03280
           281      70.25     427.     -23.05095     -23.07531       0.02436     575.     -23.03806     -23.07083       0.03277
           282      70.50     743.     -23.03436     -23.07671       0.04236     575.     -23.03805     -23.07085       0.03280
           283      70.75     398.     -23.05516     -23.07782       0.02266     575.     -23.03811     -23.07088       0.03276
           284      71.00     626.     -23.04301     -23.07870       0.03568     575.     -23.03813     -23.07090       0.03277
           285      71.25     555.     -23.04736     -23.07901       0.03165     575.     -23.03816     -23.07093       0.03277
           286      71.50     573.     -23.04621     -23.07889       0.03268     575.     -23.03819     -23.07096       0.03277
           287      71.75     544.     -23.04743     -23.07844       0.03100     575.     -23.03822     -23.07099       0.03276
           288      72.00     449.     -23.05180     -23.07737       0.02557     574.     -23.03827     -23.07101       0.03274
           289      72.25     635.     -23.04019     -23.07638       0.03620     575.     -23.03827     -23.07103       0.03275
           290      72.50     350.     -23.05527     -23.07522       0.01995     574.     -23.03833     -23.07104       0.03271
           291      72.75     717.     -23.03374     -23.07460       0.04085     574.     -23.03832     -23.07105       0.03274
           292      73.00     434.     -23.04948     -23.07419       0.02471     574.     -23.03835     -23.07106       0.03271
           293      73.25     718.     -23.03306     -23.07398       0.04092     574.     -23.03834     -23.07107       0.03274
           294      73.50     559.     -23.04225     -23.07409       0.03184     574.     -23.03835     -23.07108       0.03273
           295      73.75     588.     -23.04102     -23.07451       0.03349     574.     -23.03836     -23.07109       0.03274
           296      74.00     640.     -23.03858     -23.07504       0.03647     575.     -23.03836     -23.07111       0.03275
           297      74.25     458.     -23.04986     -23.07594       0.02608     574.     -23.03840     -23.07112       0.03273
           298      74.50     780.     -23.03227     -23.07672       0.04445     575.     -23.03838     -23.07114       0.03277
           299      74.75     408.     -23.05427     -23.07753       0.02326     574.     -23.03843     -23.07116       0.03273
           300      75.00     616.     -23.04337     -23.07851       0.03514     574.     -23.03845     -23.07119       0.03274
           301      75.25     559.     -23.04756     -23.07940       0.03185     574.     -23.03848     -23.07122       0.03274
           302      75.50     659.     -23.04274     -23.08032       0.03758     575.     -23.03849     -23.07125       0.03275
           303      75.75     570.     -23.04849     -23.08101       0.03252     575.     -23.03852     -23.07128       0.03275
           304      76.00     420.     -23.05786     -23.08181       0.02395     574.     -23.03859     -23.07131       0.03272
           305      76.25     697.     -23.04255     -23.08228       0.03973     574.     -23.03860     -23.07135       0.03275
           306      76.50     461.     -23.05641     -23.08270       0.02629     574.     -23.03866     -23.07139       0.03273
           307      76.75     768.     -23.03877     -23.08254       0.04377     575.     -23.03866     -23.07142       0.03276
           308      77.00     553.     -23.05040     -23.08191       0.03151     575.     -23.03870     -23.07146       0.03276
           309      77.25     545.     -23.04948     -23.08055       0.03107     575.     -23.03873     -23.07148       0.03275
           310      77.50     636.     -23.04306     -23.07932       0.03626     575.     -23.03875     -23.07151       0.03276
           311      77.75     509.     -23.04864     -23.07763       0.02899     575.     -23.03878     -23.07153       0.03275
           312      78.00     844.     -23.02793     -23.07604       0.04811     575.     -23.03874     -23.07154       0.03280
           313      78.25     428.     -23.05041     -23.07481       0.02440     575.     -23.03878     -23.07155       0.03277
           314      78.50     632.     -23.03774     -23.07375       0.03601     575.     -23.03878     -23.07156       0.03278
           315      78.75     378.     -23.05192     -23.07345       0.02153     575.     -23.03882     -23.07157       0.03275
           316      79.00     593.     -23.03979     -23.07359       0.03380     575.     -23.03882     -23.07157       0.03275
           317      79.25     372.     -23.05274     -23.07397       0.02122     574.     -23.03887     -23.07158       0.03272
           318      79.50     633.     -23.03846     -23.07453       0.03607     574.     -23.03886     -23.07159       0.03273
           319      79.75     538.     -23.04425     -23.07489       0.03064     574.     -23.03888     -23.07160       0.03272
           320      80.00     548.     -23.04390     -23.07514       0.03124     574.     -23.03890     -23.07161       0.03272
           321      80.25     502.     -23.04660     -23.07522       0.02862     574.     -23.03892     -23.07162       0.03270
           322      80.50     508.     -23.04617     -23.07512       0.02895     574.     -23.03894     -23.07163       0.03269
           323      80.75     813.     -23.02843     -23.07477       0.04634     574.     -23.03891     -23.07164       0.03273
           324      81.00     435.     -23.04934     -23.07413       0.02479     574.     -23.03894     -23.07165       0.03271
           325      81.25     697.     -23.03345     -23.07317       0.03973     574.     -23.03893     -23.07166       0.03273
           326      81.50     340.     -23.05315     -23.07251       0.01936     573.     -23.03897     -23.07166       0.03269
           327      81.75     681.     -23.03295     -23.07178       0.03884     574.     -23.03895     -23.07166       0.03271
           328      82.00     313.     -23.05336     -23.07122       0.01786     573.     -23.03899     -23.07166       0.03266
           329      82.25     628.     -23.03484     -23.07066       0.03582     573.     -23.03898     -23.07165       0.03267
           330      82.50     636.     -23.03413     -23.07039       0.03625     573.     -23.03897     -23.07165       0.03268
           331      82.75     516.     -23.04081     -23.07020       0.02939     573.     -23.03897     -23.07165       0.03267
           332      83.00     687.     -23.03098     -23.07012       0.03915     574.     -23.03895     -23.07164       0.03269
           333      83.25     377.     -23.04878     -23.07024       0.02146     573.     -23.03898     -23.07164       0.03266
           334      83.50     670.     -23.03224     -23.07043       0.03820     573.     -23.03896     -23.07163       0.03268
           335      83.75     499.     -23.04217     -23.07061       0.02844     573.     -23.03897     -23.07163       0.03266
           336      84.00     564.     -23.03849     -23.07066       0.03217     573.     -23.03897     -23.07163       0.03266
           337      84.25     669.     -23.03253     -23.07069       0.03816     573.     -23.03895     -23.07163       0.03268
           338      84.50     335.     -23.05185     -23.07094       0.01908     573.     -23.03899     -23.07162       0.03264
           339      84.75     675.     -23.03289     -23.07139       0.03850     573.     -23.03897     -23.07162       0.03266
           340      85.00     411.     -23.04885     -23.07226       0.02342     572.     -23.03900     -23.07162       0.03263
           341      85.25     740.     -23.03114     -23.07334       0.04220     573.     -23.03897     -23.07163       0.03266
           342      85.50     558.     -23.04253     -23.07432       0.03180     573.     -23.03898     -23.07164       0.03265
           343      85.75     584.     -23.04182     -23.07513       0.03331     573.     -23.03899     -23.07165       0.03266
           344      86.00     595.     -23.04161     -23.07554       0.03393     573.     -23.03900     -23.07166       0.03266
           345      86.25     471.     -23.04860     -23.07545       0.02685     573.     -23.03903     -23.07167       0.03264
           346      86.50     668.     -23.03674     -23.07484       0.03809     573.     -23.03902     -23.07168       0.03266
           347      86.75     429.     -23.04939     -23.07387       0.02448     573.     -23.03905     -23.07169       0.03263
           348      87.00     755.     -23.02953     -23.07259       0.04307     573.     -23.03902     -23.07169       0.03266
           349      87.25     529.     -23.04129     -23.07143       0.03013     573.     -23.03903     -23.07169       0.03266
           350      87.50     749.     -23.02764     -23.07032       0.04268     573.     -23.03900     -23.07168       0.03269
           351      87.75     535.     -23.03933     -23.06982       0.03050     573.     -23.03900     -23.07168       0.03268
           352      88.00     479.     -23.04226     -23.06957       0.02732     573.     -23.03901     -23.07167       0.03266
           353      88.25     892.     -23.01873     -23.06960       0.05086     574.     -23.03895     -23.07167       0.03272
           354      88.50     492.     -23.04177     -23.06981       0.02804     574.     -23.03896     -23.07166       0.03270
           355      88.75     752.     -23.02709     -23.06997       0.04288     574.     -23.03892     -23.07166       0.03273
           356      89.00     441.     -23.04492     -23.07008       0.02516     574.     -23.03894     -23.07165       0.03271
           357      89.25     587.     -23.03662     -23.07010       0.03349     574.     -23.03894     -23.07165       0.03271
           358      89.50     598.     -23.03586     -23.06993       0.03407     574.     -23.03893     -23.07164       0.03272
           359      89.75     436.     -23.04465     -23.06948       0.02483     574.     -23.03894     -23.07164       0.03269
           360      90.00     830.     -23.02167     -23.06899       0.04732     574.     -23.03889     -23.07163       0.03273
           361      90.25     502.     -23.03978     -23.06841       0.02863     574.     -23.03890     -23.07162       0.03272
           362      90.50     840.     -23.01988     -23.06777       0.04789     575.     -23.03884     -23.07161       0.03277
           363      90.75     445.     -23.04193     -23.06729       0.02536     574.     -23.03885     -23.07160       0.03274
           364      91.00     624.     -23.03131     -23.06686       0.03555     575.     -23.03883     -23.07158       0.03275
           365      91.25     560.     -23.03471     -23.06665       0.03194     575.     -23.03882     -23.07157       0.03275
           366      91.50     518.     -23.03703     -23.06658       0.02954     574.     -23.03882     -23.07156       0.03274
           367      91.75     696.     -23.02707     -23.06675       0.03968     575.     -23.03878     -23.07154       0.03276
           368      92.00     415.     -23.04366     -23.06734       0.02368     574.     -23.03880     -23.07153       0.03274
           369      92.25     750.     -23.02531     -23.06808       0.04277     575.     -23.03876     -23.07152       0.03276
           370      92.50     540.     -23.03810     -23.06890       0.03081     575.     -23.03876     -23.07152       0.03276
           371      92.75     872.     -23.01995     -23.06966       0.04971     575.     -23.03871     -23.07151       0.03280
           372      93.00     506.     -23.04131     -23.07013       0.02882     575.     -23.03872     -23.07151       0.03279
           373      93.25     484.     -23.04276     -23.07032       0.02757     575.     -23.03873     -23.07151       0.03278
           374      93.50     567.     -23.03794     -23.07027       0.03234     575.     -23.03872     -23.07150       0.03278
           375      93.75     539.     -23.03939     -23.07010       0.03071     575.     -23.03873     -23.07150       0.03277
           376      94.00     661.     -23.03213     -23.06982       0.03768     575.     -23.03871     -23.07149       0.03278
           377      94.25     363.     -23.04880     -23.06946       0.02066     575.     -23.03874     -23.07149       0.03275
           378      94.50     604.     -23.03481     -23.06924       0.03443     575.     -23.03873     -23.07148       0.03276
           379      94.75     403.     -23.04621     -23.06917       0.02296     574.     -23.03874     -23.07148       0.03273
           380      95.00     649.     -23.03233     -23.06931       0.03698     574.     -23.03873     -23.07147       0.03274
           381      95.25     447.     -23.04405     -23.06955       0.02550     574.     -23.03874     -23.07147       0.03272
           382      95.50     826.     -23.02231     -23.06940       0.04709     575.     -23.03870     -23.07146       0.03276
           383      95.75     528.     -23.03887     -23.06895       0.03008     575.     -23.03870     -23.07145       0.03275
           384      96.00     619.     -23.03278     -23.06808       0.03530     575.     -23.03868     -23.07144       0.03276
           385      96.25     567.     -23.03500     -23.06734       0.03234     575.     -23.03867     -23.07143       0.03276
           386      96.50     531.     -23.03612     -23.06638       0.03025     575.     -23.03867     -23.07142       0.03275
           387      96.75     740.     -23.02354     -23.06573       0.04219     575.     -23.03863     -23.07141       0.03278
           388      97.00     389.     -23.04316     -23.06534       0.02218     575.     -23.03864     -23.07139       0.03275
           389      97.25     710.     -23.02475     -23.06525       0.04049     575.     -23.03860     -23.07138       0.03277
           390      97.50     399.     -23.04273     -23.06545       0.02272     574.     -23.03862     -23.07136       0.03274
           391      97.75     605.     -23.03128     -23.06578       0.03450     575.     -23.03860     -23.07135       0.03275
           392      98.00     584.     -23.03266     -23.06596       0.03330     575.     -23.03858     -23.07133       0.03275
           393      98.25     429.     -23.04162     -23.06607       0.02445     574.     -23.03859     -23.07132       0.03273
           394      98.50     745.     -23.02362     -23.06608       0.04246     575.     -23.03855     -23.07131       0.03275
           395      98.75     488.     -23.03819     -23.06602       0.02783     574.     -23.03855     -23.07129       0.03274
           396      99.00     862.     -23.01658     -23.06570       0.04912     575.     -23.03850     -23.07128       0.03278
           397      99.25     535.     -23.03483     -23.06535       0.03052     575.     -23.03849     -23.07126       0.03278
           398      99.50     449.     -23.03914     -23.06475       0.02562     575.     -23.03849     -23.07125       0.03276
           399      99.75     650.     -23.02730     -23.06438       0.03708     575.     -23.03846     -23.07123       0.03277
           400     100.00     464.     -23.03759     -23.06403       0.02644     575.     -23.03846     -23.07121       0.03275
           401     100.25     799.     -23.01816     -23.06373       0.04557     575.     -23.03841     -23.07119       0.03279
           402     100.50     517.     -23.03418     -23.06366       0.02948     575.     -23.03840     -23.07117       0.03278
           403     100.75     569.     -23.03143     -23.06389       0.03246     575.     -23.03838     -23.07116       0.03278
           404     101.00     554.     -23.03286     -23.06443       0.03157     575.     -23.03837     -23.07114       0.03277
           405     101.25     506.     -23.03688     -23.06570       0.02882     575.     -23.03836     -23.07113       0.03276
           406     101.50     884.     -23.01656     -23.06697       0.05041     576.     -23.03831     -23.07112       0.03281
           407     101.75     494.     -23.04029     -23.06848       0.02819     575.     -23.03831     -23.07111       0.03280
           408     102.00     627.     -23.03417     -23.06991       0.03574     575.     -23.03830     -23.07111       0.03280
           409     102.25     549.     -23.03953     -23.07080       0.03128     575.     -23.03831     -23.07111       0.03280
           410     102.50     526.     -23.04162     -23.07161       0.02999     575.     -23.03831     -23.07111       0.03279
           411     102.75     790.     -23.02661     -23.07164       0.04502     576.     -23.03829     -23.07111       0.03282
           412     103.00     411.     -23.04744     -23.07089       0.02344     575.     -23.03831     -23.07111       0.03280
           413     103.25     696.     -23.02974     -23.06941       0.03967     576.     -23.03829     -23.07110       0.03282
           414     103.50     381.     -23.04635     -23.06806       0.02171     575.     -23.03831     -23.07110       0.03279
           415     103.75     569.     -23.03383     -23.06627       0.03244     575.     -23.03830     -23.07108       0.03279
           416     104.00     618.     -23.02964     -23.06487       0.03523     575.     -23.03828     -23.07107       0.03279
           417     104.25     478.     -23.03600     -23.06323       0.02723     575.     -23.03827     -23.07105       0.03278
           418     104.50     666.     -23.02406     -23.06200       0.03794     575.     -23.03824     -23.07103       0.03279
           419     104.75     388.     -23.03889     -23.06100       0.02211     575.     -23.03824     -23.07101       0.03277
           420     105.00     723.     -23.01898     -23.06020       0.04122     575.     -23.03819     -23.07098       0.03279
           421     105.25     496.     -23.03162     -23.05990       0.02828     575.     -23.03818     -23.07095       0.03278
           422     105.50     570.     -23.02741     -23.05991       0.03250     575.     -23.03815     -23.07093       0.03278
           423     105.75     610.     -23.02548     -23.06022       0.03475     575.     -23.03812     -23.07090       0.03278
           424     106.00     524.     -23.03110     -23.06095       0.02985     575.     -23.03810     -23.07088       0.03277
           425     106.25     700.     -23.02171     -23.06162       0.03991     575.     -23.03807     -23.07086       0.03279
           426     106.50     336.     -23.04349     -23.06262       0.01913     575.     -23.03808     -23.07084       0.03276
           427     106.75     672.     -23.02530     -23.06361       0.03830     575.     -23.03805     -23.07082       0.03277
           428     107.00     502.     -23.03578     -23.06438       0.02861     575.     -23.03804     -23.07081       0.03276
           429     107.25     506.     -23.03613     -23.06495       0.02882     575.     -23.03804     -23.07079       0.03275
           430     107.50     726.     -23.02354     -23.06493       0.04139     575.     -23.03801     -23.07078       0.03277
           431     107.75     326.     -23.04605     -23.06464       0.01859     574.     -23.03802     -23.07076       0.03274
           432     108.00     658.     -23.02646     -23.06398       0.03753     575.     -23.03800     -23.07075       0.03275
           433     108.25     341.     -23.04369     -23.06313       0.01945     574.     -23.03801     -23.07073       0.03272
           434     108.50     691.     -23.02257     -23.06198       0.03941     574.     -23.03797     -23.07071       0.03274
           435     108.75     508.     -23.03177     -23.06074       0.02897     574.     -23.03796     -23.07069       0.03273
           436     109.00     542.     -23.02780     -23.05871       0.03091     574.     -23.03794     -23.07066       0.03272
           437     109.25     665.     -23.01914     -23.05706       0.03793     574.     -23.03789     -23.07063       0.03274
           438     109.50     328.     -23.03671     -23.05539       0.01868     574.     -23.03789     -23.07060       0.03270
           439     109.75     706.     -23.01401     -23.05426       0.04025     574.     -23.03784     -23.07056       0.03272
           440     110.00     432.     -23.02924     -23.05388       0.02463     574.     -23.03782     -23.07052       0.03270
           441     110.25     600.     -23.02006     -23.05425       0.03419     574.     -23.03778     -23.07048       0.03271
           442     110.50     620.     -23.01990     -23.05524       0.03534     574.     -23.03774     -23.07045       0.03271
           443     110.75     442.     -23.03213     -23.05734       0.02520     574.     -23.03772     -23.07042       0.03269
           444     111.00    1035.     -23.00065     -23.05962       0.05898     575.     -23.03764     -23.07040       0.03275
           445     111.25     482.     -23.03497     -23.06246       0.02749     574.     -23.03764     -23.07038       0.03274
           446     111.50     846.     -23.01701     -23.06522       0.04821     575.     -23.03759     -23.07037       0.03278
           447     111.75     525.     -23.03745     -23.06736       0.02990     575.     -23.03759     -23.07036       0.03277
           448     112.00     395.     -23.04706     -23.06960       0.02254     574.     -23.03761     -23.07036       0.03275
           449     112.25     656.     -23.03347     -23.07085       0.03738     575.     -23.03760     -23.07036       0.03276
           450     112.50     415.     -23.04828     -23.07195       0.02367     574.     -23.03762     -23.07036       0.03274
           451     112.75     538.     -23.04185     -23.07250       0.03066     574.     -23.03763     -23.07037       0.03273
           452     113.00     483.     -23.04554     -23.07305       0.02751     574.     -23.03765     -23.07037       0.03272
           453     113.25     828.     -23.02591     -23.07308       0.04717     575.     -23.03763     -23.07038       0.03275
           454     113.50     512.     -23.04345     -23.07264       0.02920     574.     -23.03764     -23.07038       0.03275
           455     113.75     624.     -23.03603     -23.07161       0.03557     575.     -23.03763     -23.07039       0.03275
           456     114.00     406.     -23.04685     -23.06999       0.02314     574.     -23.03765     -23.07039       0.03273
           457     114.25     737.     -23.02567     -23.06768       0.04201     575.     -23.03763     -23.07038       0.03275
           458     114.50     506.     -23.03656     -23.06539       0.02883     574.     -23.03763     -23.07037       0.03274
           459     114.75     626.     -23.02702     -23.06270       0.03569     575.     -23.03760     -23.07035       0.03275
           460     115.00     475.     -23.03382     -23.06088       0.02707     574.     -23.03760     -23.07033       0.03274
           461     115.25     538.     -23.02848     -23.05916       0.03068     574.     -23.03758     -23.07031       0.03273
           462     115.50     704.     -23.01830     -23.05845       0.04015     575.     -23.03753     -23.07028       0.03275
           463     115.75     422.     -23.03448     -23.05853       0.02405     574.     -23.03753     -23.07026       0.03273
           464     116.00     789.     -23.01430     -23.05926       0.04495     575.     -23.03748     -23.07023       0.03276
           465     116.25     480.     -23.03311     -23.06045       0.02734     574.     -23.03747     -23.07021       0.03274
           466     116.50     590.     -23.02864     -23.06225       0.03361     574.     -23.03745     -23.07019       0.03275
           467     116.75     352.     -23.04368     -23.06375       0.02007     574.     -23.03746     -23.07018       0.03272
           468     117.00     600.     -23.03141     -23.06559       0.03418     574.     -23.03745     -23.07017       0.03272
           469     117.25     585.     -23.03329     -23.06664       0.03335     574.     -23.03744     -23.07016       0.03272
           470     117.50     465.     -23.04088     -23.06740       0.02652     574.     -23.03745     -23.07016       0.03271
           471     117.75     651.     -23.03052     -23.06764       0.03711     574.     -23.03743     -23.07015       0.03272
           472     118.00     437.     -23.04257     -23.06750       0.02492     574.     -23.03744     -23.07015       0.03270
           473     118.25     822.     -23.01995     -23.06679       0.04683     574.     -23.03741     -23.07014       0.03273
           474     118.50     466.     -23.03919     -23.06574       0.02655     574.     -23.03741     -23.07013       0.03272
           475     118.75     616.     -23.02906     -23.06415       0.03509     574.     -23.03739     -23.07012       0.03272
           476     119.00     352.     -23.04271     -23.06276       0.02005     574.     -23.03740     -23.07010       0.03270
           477     119.25     603.     -23.02652     -23.06087       0.03435     574.     -23.03738     -23.07008       0.03270
           478     119.50     520.     -23.02976     -23.05938       0.02962     574.     -23.03737     -23.07006       0.03270
           479     119.75     479.     -23.03021     -23.05754       0.02732     573.     -23.03735     -23.07003       0.03268
           480     120.00     597.     -23.02232     -23.05638       0.03406     573.     -23.03732     -23.07001       0.03269
           481     120.25     518.     -23.02611     -23.05565       0.02954     573.     -23.03730     -23.06998       0.03268
           482     120.50     658.     -23.01817     -23.05565       0.03748     573.     -23.03726     -23.06995       0.03269
           483     120.75     496.     -23.02815     -23.05640       0.02825     573.     -23.03724     -23.06992       0.03268
           484     121.00     635.     -23.02136     -23.05754       0.03618     573.     -23.03721     -23.06989       0.03269
           485     121.25     388.     -23.03709     -23.05918       0.02209     573.     -23.03720     -23.06987       0.03267
           486     121.50     614.     -23.02691     -23.06190       0.03499     573.     -23.03718     -23.06986       0.03267
           487     121.75     565.     -23.03222     -23.06446       0.03223     573.     -23.03717     -23.06984       0.03267
           488     122.00     516.     -23.03800     -23.06742       0.02942     573.     -23.03718     -23.06984       0.03266
           489     122.25     669.     -23.03173     -23.06986       0.03814     573.     -23.03716     -23.06984       0.03267
           490     122.50     464.     -23.04642     -23.07285       0.02643     573.     -23.03718     -23.06985       0.03266
           491     122.75     645.     -23.03798     -23.07475       0.03678     573.     -23.03718     -23.06986       0.03267
           492     123.00     352.     -23.05579     -23.07584       0.02005     573.     -23.03722     -23.06987       0.03264
           493     123.25     613.     -23.04143     -23.07637       0.03494     573.     -23.03723     -23.06988       0.03265
           494     123.50     361.     -23.05544     -23.07600       0.02056     572.     -23.03727     -23.06989       0.03263
           495     123.75     679.     -23.03599     -23.07470       0.03871     573.     -23.03727     -23.06990       0.03264
           496     124.00     520.     -23.04328     -23.07290       0.02962     572.     -23.03728     -23.06991       0.03263
           497     124.25     570.     -23.03784     -23.07032       0.03248     572.     -23.03728     -23.06991       0.03263
           498     124.50     473.     -23.04134     -23.06829       0.02694     572.     -23.03729     -23.06991       0.03262
           499     124.75     509.     -23.03663     -23.06564       0.02901     572.     -23.03729     -23.06990       0.03261
           500     125.00     822.     -23.01703     -23.06390       0.04687     573.     -23.03724     -23.06989       0.03264
           501     125.25     442.     -23.03735     -23.06258       0.02522     572.     -23.03725     -23.06987       0.03263
           502     125.50     721.     -23.02079     -23.06189       0.04110     573.     -23.03721     -23.06986       0.03264
           503     125.75     496.     -23.03385     -23.06209       0.02825     573.     -23.03721     -23.06984       0.03263
           504     126.00     565.     -23.03100     -23.06319       0.03219     572.     -23.03719     -23.06983       0.03263
           505     126.25     597.     -23.03050     -23.06450       0.03400     573.     -23.03718     -23.06982       0.03264
           506     126.50     472.     -23.03922     -23.06611       0.02688     572.     -23.03718     -23.06981       0.03262
           507     126.75     842.     -23.01944     -23.06746       0.04802     573.     -23.03715     -23.06980       0.03265
           508     127.00     477.     -23.04180     -23.06897       0.02716     573.     -23.03716     -23.06980       0.03264
           509     127.25     618.     -23.03499     -23.07020       0.03520     573.     -23.03715     -23.06980       0.03265
           510     127.50     416.     -23.04738     -23.07108       0.02370     572.     -23.03717     -23.06981       0.03263
           511     127.75     772.     -23.02775     -23.07176       0.04401     573.     -23.03716     -23.06981       0.03265
           512     128.00     515.     -23.04283     -23.07219       0.02936     573.     -23.03717     -23.06981       0.03265
           513     128.25     638.     -23.03601     -23.07241       0.03639     573.     -23.03716     -23.06982       0.03265
           514     128.50     562.     -23.04042     -23.07244       0.03202     573.     -23.03717     -23.06982       0.03265
           515     128.75     534.     -23.04194     -23.07237       0.03044     573.     -23.03718     -23.06983       0.03265
           516     129.00     753.     -23.02922     -23.07212       0.04290     573.     -23.03716     -23.06983       0.03267
           517     129.25     408.     -23.04834     -23.07161       0.02327     573.     -23.03719     -23.06984       0.03265
           518     129.50     593.     -23.03709     -23.07090       0.03382     573.     -23.03719     -23.06984       0.03265
           519     129.75     443.     -23.04458     -23.06984       0.02526     573.     -23.03720     -23.06984       0.03264
           520     130.00     749.     -23.02611     -23.06882       0.04271     573.     -23.03718     -23.06984       0.03266
           521     130.25     423.     -23.04346     -23.06757       0.02411     573.     -23.03719     -23.06983       0.03264
           522     130.50     743.     -23.02360     -23.06593       0.04233     573.     -23.03717     -23.06983       0.03266
           523     130.75     554.     -23.03314     -23.06470       0.03155     573.     -23.03716     -23.06982       0.03266
           524     131.00     546.     -23.03260     -23.06371       0.03111     573.     -23.03715     -23.06980       0.03266
           525     131.25     657.     -23.02628     -23.06374       0.03746     573.     -23.03713     -23.06979       0.03266
           526     131.50     545.     -23.03386     -23.06496       0.03109     573.     -23.03712     -23.06978       0.03266
           527     131.75     654.     -23.02947     -23.06678       0.03731     573.     -23.03711     -23.06978       0.03267
           528     132.00     399.     -23.04646     -23.06917       0.02272     573.     -23.03713     -23.06978       0.03265
           529     132.25     857.     -23.02254     -23.07142       0.04888     573.     -23.03710     -23.06978       0.03268
           530     132.50     497.     -23.04509     -23.07342       0.02833     573.     -23.03711     -23.06979       0.03267
           531     132.75     794.     -23.02983     -23.07511       0.04528     574.     -23.03710     -23.06980       0.03270
           532     133.00     540.     -23.04501     -23.07581       0.03079     574.     -23.03711     -23.06981       0.03269
           533     133.25     541.     -23.04515     -23.07601       0.03086     573.     -23.03713     -23.06982       0.03269
           534     133.50     685.     -23.03675     -23.07579       0.03904     574.     -23.03713     -23.06983       0.03270
           535     133.75     418.     -23.05151     -23.07532       0.02381     573.     -23.03715     -23.06984       0.03269
           536     134.00     790.     -23.02953     -23.07459       0.04506     574.     -23.03714     -23.06985       0.03271
           537     134.25     524.     -23.04401     -23.07386       0.02985     574.     -23.03715     -23.06986       0.03270
           538     134.50     623.     -23.03741     -23.07291       0.03550     574.     -23.03715     -23.06986       0.03271
           539     134.75     605.     -23.03783     -23.07233       0.03451     574.     -23.03716     -23.06987       0.03271
           540     135.00     571.     -23.03927     -23.07183       0.03255     574.     -23.03716     -23.06987       0.03271
           541     135.25     586.     -23.03808     -23.07149       0.03341     574.     -23.03716     -23.06987       0.03271
           542     135.50     523.     -23.04148     -23.07129       0.02981     574.     -23.03717     -23.06988       0.03271
           543     135.75     703.     -23.03119     -23.07128       0.04010     574.     -23.03716     -23.06988       0.03272
           544     136.00     389.     -23.04923     -23.07142       0.02219     574.     -23.03718     -23.06988       0.03270
           545     136.25     660.     -23.03402     -23.07162       0.03760     574.     -23.03717     -23.06989       0.03271
           546     136.50     424.     -23.04775     -23.07194       0.02419     574.     -23.03719     -23.06989       0.03270
           547     136.75     765.     -23.02878     -23.07237       0.04359     574.     -23.03718     -23.06989       0.03272
           548     137.00     539.     -23.04217     -23.07288       0.03071     574.     -23.03719     -23.06990       0.03271
           549     137.25     526.     -23.04361     -23.07361       0.03000     574.     -23.03720     -23.06991       0.03271
           550     137.50     641.     -23.03777     -23.07432       0.03656     574.     -23.03720     -23.06991       0.03271
           551     137.75     563.     -23.04341     -23.07549       0.03208     574.     -23.03721     -23.06992       0.03271
           552     138.00     611.     -23.04168     -23.07653       0.03485     574.     -23.03722     -23.06994       0.03272
           553     138.25     437.     -23.05266     -23.07756       0.02489     574.     -23.03725     -23.06995       0.03270
           554     138.50     851.     -23.02979     -23.07830       0.04851     574.     -23.03723     -23.06996       0.03273
           555     138.75     457.     -23.05293     -23.07901       0.02607     574.     -23.03726     -23.06998       0.03272
           556     139.00     716.     -23.03857     -23.07936       0.04079     574.     -23.03726     -23.07000       0.03273
           557     139.25     563.     -23.04723     -23.07934       0.03211     574.     -23.03728     -23.07001       0.03273
           558     139.50     464.     -23.05242     -23.07890       0.02648     574.     -23.03731     -23.07003       0.03272
           559     139.75     859.     -23.02932     -23.07828       0.04896     575.     -23.03729     -23.07004       0.03275
           560     140.00     479.     -23.05011     -23.07743       0.02732     574.     -23.03732     -23.07006       0.03274
           561     140.25     761.     -23.03292     -23.07632       0.04339     575.     -23.03731     -23.07007       0.03276
           562     140.50     463.     -23.04918     -23.07557       0.02639     574.     -23.03733     -23.07008       0.03275
           563     140.75     563.     -23.04296     -23.07504       0.03207     574.     -23.03734     -23.07009       0.03275
           564     141.00     612.     -23.03996     -23.07486       0.03490     575.     -23.03735     -23.07010       0.03275
           565     141.25     412.     -23.05149     -23.07498       0.02348     574.     -23.03737     -23.07010       0.03273
           566     141.50     803.     -23.02953     -23.07531       0.04579     575.     -23.03736     -23.07011       0.03276
           567     141.75     477.     -23.04871     -23.07592       0.02721     574.     -23.03738     -23.07012       0.03275
           568     142.00     745.     -23.03398     -23.07645       0.04247     575.     -23.03737     -23.07014       0.03276
           569     142.25     551.     -23.04531     -23.07669       0.03138     575.     -23.03738     -23.07015       0.03276
           570     142.50     411.     -23.05346     -23.07686       0.02340     574.     -23.03741     -23.07016       0.03275
           571     142.75     717.     -23.03600     -23.07688       0.04088     575.     -23.03741     -23.07017       0.03276
[...]
           850     212.50     747.     -23.00856     -23.05112       0.04257     577.     -23.03724     -23.07011       0.03287
           851     212.75     361.     -23.03028     -23.05088       0.02060     576.     -23.03723     -23.07009       0.03286
           852     213.00     632.     -23.01520     -23.05122       0.03602     576.     -23.03721     -23.07007       0.03286
           853     213.25     547.     -23.02076     -23.05197       0.03120     576.     -23.03719     -23.07005       0.03286
           854     213.50     472.     -23.02652     -23.05340       0.02688     576.     -23.03718     -23.07003       0.03285
           855     213.75     660.     -23.01710     -23.05473       0.03763     576.     -23.03715     -23.07001       0.03286
           856     214.00     339.     -23.03709     -23.05640       0.01930     576.     -23.03715     -23.06999       0.03284
           857     214.25     681.     -23.01946     -23.05830       0.03884     576.     -23.03713     -23.06998       0.03285
           858     214.50     527.     -23.03008     -23.06014       0.03006     576.     -23.03712     -23.06997       0.03284
           859     214.75     557.     -23.03066     -23.06238       0.03173     576.     -23.03712     -23.06996       0.03284
           860     215.00     666.     -23.02588     -23.06385       0.03798     576.     -23.03710     -23.06995       0.03285
           861     215.25     352.     -23.04526     -23.06535       0.02008     576.     -23.03711     -23.06995       0.03283
           862     215.50     645.     -23.02969     -23.06648       0.03679     576.     -23.03710     -23.06994       0.03284
           863     215.75     474.     -23.04027     -23.06732       0.02704     576.     -23.03711     -23.06994       0.03283
           864     216.00     744.     -23.02537     -23.06779       0.04242     576.     -23.03709     -23.06994       0.03284
           865     216.25     464.     -23.04150     -23.06794       0.02644     576.     -23.03710     -23.06994       0.03284
           866     216.50     589.     -23.03426     -23.06783       0.03356     576.     -23.03710     -23.06993       0.03284
           867     216.75     654.     -23.03039     -23.06766       0.03726     576.     -23.03709     -23.06993       0.03284
           868     217.00     486.     -23.03973     -23.06742       0.02769     576.     -23.03709     -23.06993       0.03284
           869     217.25    1075.     -23.00587     -23.06715       0.06128     577.     -23.03706     -23.06993       0.03287
           870     217.50     514.     -23.03773     -23.06704       0.02931     577.     -23.03706     -23.06992       0.03286
           871     217.75     836.     -23.01947     -23.06710       0.04763     577.     -23.03704     -23.06992       0.03288
           872     218.00     469.     -23.04072     -23.06746       0.02674     577.     -23.03704     -23.06992       0.03287
           873     218.25     556.     -23.03652     -23.06822       0.03170     577.     -23.03704     -23.06991       0.03287
           874     218.50     648.     -23.03207     -23.06899       0.03691     577.     -23.03703     -23.06991       0.03288
           875     218.75     397.     -23.04756     -23.07017       0.02261     577.     -23.03705     -23.06991       0.03287
           876     219.00     637.     -23.03481     -23.07114       0.03633     577.     -23.03704     -23.06991       0.03287
           877     219.25     486.     -23.04440     -23.07212       0.02771     577.     -23.03705     -23.06992       0.03286
           878     219.50     751.     -23.03003     -23.07286       0.04282     577.     -23.03704     -23.06992       0.03288
           879     219.75     444.     -23.04819     -23.07351       0.02531     577.     -23.03706     -23.06992       0.03287
           880     220.00     649.     -23.03680     -23.07378       0.03698     577.     -23.03706     -23.06993       0.03287
           881     220.25     329.     -23.05510     -23.07388       0.01878     576.     -23.03708     -23.06993       0.03286
           882     220.50     619.     -23.03855     -23.07385       0.03531     576.     -23.03708     -23.06994       0.03286
           883     220.75     403.     -23.05066     -23.07364       0.02298     576.     -23.03709     -23.06994       0.03285
           884     221.00     685.     -23.03410     -23.07312       0.03903     576.     -23.03709     -23.06995       0.03285
           885     221.25     540.     -23.04177     -23.07258       0.03081     576.     -23.03710     -23.06995       0.03285
           886     221.50     429.     -23.04722     -23.07168       0.02445     576.     -23.03711     -23.06995       0.03284
           887     221.75     603.     -23.03669     -23.07105       0.03436     576.     -23.03711     -23.06995       0.03284
           888     222.00     491.     -23.04229     -23.07025       0.02796     576.     -23.03711     -23.06995       0.03284
           889     222.25     750.     -23.02676     -23.06953       0.04277     576.     -23.03710     -23.06995       0.03285
           890     222.50     412.     -23.04523     -23.06874       0.02350     576.     -23.03711     -23.06995       0.03284
           891     222.75     674.     -23.02947     -23.06789       0.03842     576.     -23.03710     -23.06995       0.03285
           892     223.00     532.     -23.03683     -23.06713       0.03030     576.     -23.03710     -23.06994       0.03284
           893     223.25     506.     -23.03722     -23.06607       0.02885     576.     -23.03710     -23.06994       0.03284
           894     223.50     679.     -23.02664     -23.06534       0.03870     576.     -23.03709     -23.06994       0.03285
           895     223.75     284.     -23.04859     -23.06477       0.01618     576.     -23.03710     -23.06993       0.03283
           896     224.00     701.     -23.02465     -23.06460       0.03995     576.     -23.03709     -23.06992       0.03283
           897     224.25     374.     -23.04346     -23.06480       0.02134     576.     -23.03710     -23.06992       0.03282
           898     224.50     741.     -23.02305     -23.06528       0.04222     576.     -23.03708     -23.06991       0.03283
           899     224.75     525.     -23.03603     -23.06597       0.02994     576.     -23.03708     -23.06991       0.03283
           900     225.00     600.     -23.03270     -23.06689       0.03420     576.     -23.03707     -23.06990       0.03283
           901     225.25     612.     -23.03288     -23.06774       0.03486     576.     -23.03707     -23.06990       0.03283
           902     225.50     522.     -23.03924     -23.06899       0.02974     576.     -23.03707     -23.06990       0.03283
           903     225.75     661.     -23.03229     -23.06997       0.03768     576.     -23.03707     -23.06990       0.03283
           904     226.00     394.     -23.04853     -23.07101       0.02248     576.     -23.03708     -23.06990       0.03282
           905     226.25     764.     -23.02838     -23.07191       0.04352     576.     -23.03707     -23.06990       0.03283
           906     226.50     512.     -23.04359     -23.07278       0.02919     576.     -23.03708     -23.06991       0.03283
           907     226.75     754.     -23.03058     -23.07354       0.04295     576.     -23.03707     -23.06991       0.03284
           908     227.00     574.     -23.04114     -23.07384       0.03270     576.     -23.03707     -23.06992       0.03284
           909     227.25     443.     -23.04856     -23.07379       0.02523     576.     -23.03709     -23.06992       0.03283
           910     227.50     698.     -23.03364     -23.07344       0.03980     576.     -23.03708     -23.06992       0.03284
           911     227.75     558.     -23.04089     -23.07272       0.03183     576.     -23.03709     -23.06993       0.03284
           912     228.00     633.     -23.03561     -23.07170       0.03609     576.     -23.03709     -23.06993       0.03284
           913     228.25     410.     -23.04703     -23.07041       0.02338     576.     -23.03710     -23.06993       0.03283
           914     228.50     781.     -23.02469     -23.06918       0.04449     576.     -23.03708     -23.06993       0.03285
           915     228.75     459.     -23.04208     -23.06823       0.02615     576.     -23.03709     -23.06993       0.03284
           916     229.00     631.     -23.03164     -23.06759       0.03595     576.     -23.03708     -23.06992       0.03284
           917     229.25     336.     -23.04833     -23.06748       0.01915     576.     -23.03710     -23.06992       0.03283
           918     229.50     633.     -23.03179     -23.06789       0.03610     576.     -23.03709     -23.06992       0.03283
           919     229.75     544.     -23.03763     -23.06865       0.03101     576.     -23.03709     -23.06992       0.03283
           920     230.00     470.     -23.04313     -23.06993       0.02680     576.     -23.03710     -23.06992       0.03282
           921     230.25     653.     -23.03371     -23.07092       0.03721     576.     -23.03709     -23.06992       0.03283
           922     230.50     315.     -23.05404     -23.07201       0.01796     576.     -23.03711     -23.06992       0.03281
           923     230.75     660.     -23.03538     -23.07303       0.03764     576.     -23.03711     -23.06993       0.03282
           924     231.00     473.     -23.04685     -23.07384       0.02699     576.     -23.03712     -23.06993       0.03281
           925     231.25     568.     -23.04210     -23.07450       0.03240     576.     -23.03713     -23.06993       0.03281
           926     231.50     619.     -23.03940     -23.07468       0.03528     576.     -23.03713     -23.06994       0.03281
           927     231.75     317.     -23.05658     -23.07463       0.01805     575.     -23.03715     -23.06994       0.03280
           928     232.00     675.     -23.03589     -23.07438       0.03848     575.     -23.03715     -23.06995       0.03280
           929     232.25     432.     -23.04935     -23.07398       0.02463     575.     -23.03716     -23.06995       0.03279
           930     232.50     675.     -23.03475     -23.07322       0.03846     575.     -23.03716     -23.06996       0.03280
           931     232.75     570.     -23.04003     -23.07254       0.03252     575.     -23.03716     -23.06996       0.03280
           932     233.00     432.     -23.04700     -23.07161       0.02461     575.     -23.03717     -23.06996       0.03279
           933     233.25     752.     -23.02804     -23.07092       0.04289     575.     -23.03716     -23.06996       0.03280
           934     233.50     465.     -23.04377     -23.07024       0.02648     575.     -23.03717     -23.06996       0.03279
           935     233.75     729.     -23.02799     -23.06954       0.04155     575.     -23.03716     -23.06996       0.03280
           936     234.00     447.     -23.04373     -23.06922       0.02549     575.     -23.03717     -23.06996       0.03280
           937     234.25     572.     -23.03642     -23.06905       0.03262     575.     -23.03717     -23.06996       0.03280
           938     234.50     338.     -23.04996     -23.06923       0.01927     575.     -23.03718     -23.06996       0.03278
           939     234.75     683.     -23.03112     -23.07006       0.03894     575.     -23.03717     -23.06996       0.03279
           940     235.00     414.     -23.04738     -23.07100       0.02361     575.     -23.03718     -23.06996       0.03278
           941     235.25     541.     -23.04158     -23.07245       0.03087     575.     -23.03719     -23.06996       0.03278
           942     235.50     819.     -23.02685     -23.07353       0.04668     575.     -23.03718     -23.06997       0.03279
           943     235.75     521.     -23.04505     -23.07476       0.02972     575.     -23.03719     -23.06997       0.03279
           944     236.00     788.     -23.03055     -23.07549       0.04495     575.     -23.03718     -23.06998       0.03280
           945     236.25     422.     -23.05190     -23.07595       0.02405     575.     -23.03719     -23.06999       0.03279
           946     236.50     694.     -23.03638     -23.07597       0.03959     575.     -23.03719     -23.06999       0.03280
           947     236.75     522.     -23.04586     -23.07561       0.02975     575.     -23.03720     -23.07000       0.03280
           948     237.00     545.     -23.04361     -23.07469       0.03108     575.     -23.03721     -23.07000       0.03279
           949     237.25     419.     -23.04994     -23.07383       0.02389     575.     -23.03722     -23.07001       0.03278
           950     237.50     554.     -23.04071     -23.07228       0.03157     575.     -23.03723     -23.07001       0.03278
           951     237.75     553.     -23.03937     -23.07088       0.03151     575.     -23.03723     -23.07001       0.03278
           952     238.00     476.     -23.04174     -23.06889       0.02715     575.     -23.03723     -23.07001       0.03278
           953     238.25     821.     -23.02054     -23.06734       0.04680     575.     -23.03722     -23.07001       0.03279
           954     238.50     472.     -23.03916     -23.06605       0.02690     575.     -23.03722     -23.07000       0.03278
           955     238.75     647.     -23.02832     -23.06520       0.03689     575.     -23.03721     -23.07000       0.03279
           956     239.00     416.     -23.04144     -23.06512       0.02369     575.     -23.03721     -23.06999       0.03278
           957     239.25     565.     -23.03346     -23.06570       0.03223     575.     -23.03721     -23.06999       0.03278
           958     239.50     663.     -23.02875     -23.06654       0.03779     575.     -23.03720     -23.06998       0.03278
           959     239.75     446.     -23.04237     -23.06778       0.02541     575.     -23.03721     -23.06998       0.03278
           960     240.00     593.     -23.03497     -23.06879       0.03382     575.     -23.03720     -23.06998       0.03278
           961     240.25     522.     -23.04005     -23.06979       0.02974     575.     -23.03721     -23.06998       0.03277
           962     240.50     703.     -23.03055     -23.07063       0.04008     575.     -23.03720     -23.06998       0.03278
           963     240.75     388.     -23.04921     -23.07133       0.02213     575.     -23.03721     -23.06998       0.03277
           964     241.00     687.     -23.03268     -23.07187       0.03919     575.     -23.03721     -23.06998       0.03278
           965     241.25     537.     -23.04157     -23.07216       0.03059     575.     -23.03721     -23.06999       0.03277
           966     241.50     670.     -23.03411     -23.07231       0.03820     575.     -23.03721     -23.06999       0.03278
           967     241.75     452.     -23.04665     -23.07240       0.02575     575.     -23.03722     -23.06999       0.03277
           968     242.00     550.     -23.04108     -23.07241       0.03133     575.     -23.03722     -23.06999       0.03277
           969     242.25     725.     -23.03102     -23.07233       0.04131     575.     -23.03722     -23.07000       0.03278
           970     242.50     411.     -23.04867     -23.07212       0.02345     575.     -23.03723     -23.07000       0.03277
           971     242.75     717.     -23.03092     -23.07181       0.04090     575.     -23.03722     -23.07000       0.03278
           972     243.00     471.     -23.04472     -23.07157       0.02685     575.     -23.03723     -23.07000       0.03277
           973     243.25     656.     -23.03374     -23.07111       0.03737     575.     -23.03722     -23.07000       0.03278
           974     243.50     513.     -23.04145     -23.07068       0.02923     575.     -23.03723     -23.07000       0.03277
           975     243.75     572.     -23.03759     -23.07020       0.03260     575.     -23.03723     -23.07000       0.03277
           976     244.00     656.     -23.03267     -23.07007       0.03739     575.     -23.03722     -23.07000       0.03278
           977     244.25     370.     -23.04935     -23.07041       0.02106     575.     -23.03724     -23.07000       0.03277
           978     244.50     602.     -23.03684     -23.07115       0.03431     575.     -23.03724     -23.07000       0.03277
           979     244.75     461.     -23.04626     -23.07253       0.02628     575.     -23.03725     -23.07001       0.03276
           980     245.00     767.     -23.03039     -23.07412       0.04373     575.     -23.03724     -23.07001       0.03277
           981     245.25     400.     -23.05330     -23.07613       0.02283     575.     -23.03726     -23.07002       0.03276
           982     245.50     628.     -23.04223     -23.07804       0.03581     575.     -23.03726     -23.07003       0.03277
           983     245.75     563.     -23.04754     -23.07963       0.03209     575.     -23.03727     -23.07004       0.03277
           984     246.00     609.     -23.04595     -23.08064       0.03469     575.     -23.03728     -23.07005       0.03277
           985     246.25     441.     -23.05585     -23.08099       0.02514     575.     -23.03730     -23.07006       0.03276
           986     246.50     773.     -23.03660     -23.08065       0.04405     575.     -23.03730     -23.07007       0.03277
           987     246.75     429.     -23.05522     -23.07966       0.02444     575.     -23.03732     -23.07008       0.03276
           988     247.00     649.     -23.04076     -23.07775       0.03699     575.     -23.03732     -23.07009       0.03277
           989     247.25     546.     -23.04481     -23.07591       0.03110     575.     -23.03733     -23.07009       0.03276
           990     247.50     486.     -23.04539     -23.07308       0.02769     575.     -23.03733     -23.07009       0.03276
           991     247.75     868.     -23.02117     -23.07066       0.04949     575.     -23.03732     -23.07010       0.03278
           992     248.00     463.     -23.04208     -23.06850       0.02641     575.     -23.03732     -23.07009       0.03277
           993     248.25     627.     -23.03098     -23.06669       0.03571     575.     -23.03732     -23.07009       0.03277
           994     248.50     340.     -23.04650     -23.06588       0.01938     575.     -23.03733     -23.07009       0.03276
           995     248.75     593.     -23.03186     -23.06565       0.03379     575.     -23.03732     -23.07008       0.03276
           996     249.00     749.     -23.02335     -23.06605       0.04270     575.     -23.03731     -23.07008       0.03277
           997     249.25     528.     -23.03702     -23.06714       0.03012     575.     -23.03731     -23.07007       0.03277
           998     249.50     749.     -23.02558     -23.06825       0.04268     575.     -23.03729     -23.07007       0.03278
           999     249.75     413.     -23.04611     -23.06964       0.02352     575.     -23.03730     -23.07007       0.03277
          1000     250.00     708.     -23.03057     -23.07090       0.04033     575.     -23.03730     -23.07007       0.03278
 
                                     Min                 Max                Mean              StdDev
 
    Potential Energy        -23.08349422        -23.05088250        -23.07007330          0.00564307
      Kinetic Energy          0.01335995          0.06708384          0.03277639          0.00789960
        Total Energy        -23.06406851        -23.00064530        -23.03729690          0.00968552
         Temperature        234.37402108       1176.85421036        574.99742748        138.58304535

AMS application finished. Exiting.
NORMAL TERMINATION
     Total cpu time:      52.79
  Total system time:       3.68
 Total elapsed time:      59.33
