------------------------------------------------------------
          Invoking FHI-aims ...
          Version 210226
          Compiled on 2022/07/24 at 18:14:55 on host dune3.

          When using FHI-aims, please cite the following reference:

            Volker Blum, Ralf Gehrke, Felix Hanke, Paula Havu,
            Ville Havu, Xinguo Ren, Karsten Reuter, and Matthias Scheffler,
            'Ab Initio Molecular Simulations with Numeric Atom-Centered Orbitals',
            Computer Physics Communications 180, 2175-2196 (2009)

          In addition, many other developments in FHI-aims are likely important for
          your particular application. A partial list of references is given at the end of
          this file. Thank you for giving credit to the authors of these developments.

          For any questions about FHI-aims, please visit our slack channel at

            https://fhi-aims.slack.com

          and our main development and support site at

            https://aims-git.rz-berlin.mpg.de .

          The latter site, in particular, has a wiki to collect information, as well
          as an issue tracker to log discussions, suggest improvements, and report issues
          or bugs. https://aims-git.rz-berlin.mpg.de is also the main development site
          of the project and all new and updated code versions can be obtained there.
          Please send an email to aims-coordinators@fhi-berlin.mpg.de and we will add
          you to these sites. They are for you and everyone is welcome there.

------------------------------------------------------------



  Date     :  20221014, Time     :  204030.438
  Time zero on CPU 1             :   0.182813000000000E+00  s.
  Internal wall clock time zero  :           435012030.438  s.

  FHI-aims created a unique identifier for this run for later identification
  aims_uuid : DECD182D-3E64-40A3-AA60-F952A3D8A319

  Using        8 parallel tasks.
  Task        0 on host node111 reporting.
  Task        1 on host node111 reporting.
  Task        2 on host node111 reporting.
  Task        3 on host node111 reporting.
  Task        4 on host node111 reporting.
  Task        5 on host node111 reporting.
  Task        6 on host node111 reporting.
  Task        7 on host node111 reporting.

  Performing system and environment tests:
  | Environment variable OMP_NUM_THREADS correctly set to 1.
  | Checking for ScaLAPACK...
  | Testing pdtran()...
  | All pdtran() tests passed.

  Obtaining array dimensions for all initial allocations:
  
  -----------------------------------------------------------------------
  Parsing control.in (first pass over file, find array dimensions only).
  The contents of control.in will be repeated verbatim below
  unless switched off by setting 'verbatim_writeout .false.' .
  in the first line of control.in .
  -----------------------------------------------------------------------
  
  #===============================================================================
  # FHI-aims file: ./control.in
  # Created using the Atomic Simulation Environment (ASE)
  # Sat May  4 10:15:27 2019
  #
  # List of parameters used to initialize the calculator:
  #     output_level : MD_light
  #     xc : pbesol
  #     sc_accuracy_rho : 1e-06
  #     sc_accuracy_forces : 0.0005
  #     relativistic : atomic_zora scalar
  #     relax_geometry : trm_2012 5.0E-3
  #     relax_unit_cell : full
  #     scaled : True
  #     use_sym : True
  #     species_dir : /u/tpurcell/git/fhiaims_dev/species_defaults/light
  #     k_grid : [10, 10, 10]
  #     walltime : 86220
  #===============================================================================
  output_level                       MD_light
  xc                                 pbesol
  sc_accuracy_rho                    1e-06
  sc_accuracy_forces                 0.0005
  relativistic                       atomic_zora scalar
  k_grid                             1 1 1
  plus_u_petukhov_mixing             1.
  plus_u_matrix_control
  
  #===============================================================================
  
  ################################################################################
  #
  #  FHI-aims code project
  #  VB, Fritz-Haber Institut, 2009
  #
  #  Suggested "light" defaults for Ce atom (to be pasted into control.in file)
  #  Be sure to double-check any results obtained with these settings for post-processing,
  #  e.g., with the "tight" defaults and larger basis sets.
  #
  ################################################################################
    species          Ce
  #     global species definitions
      nucleus        58
      mass           140.116
  #
      l_hartree      4
      plus_u         4    f    4.5
  #
      cut_pot        4.0  1.5  1.0
      basis_dep_cutoff    1e-4
  #
      radial_base    66  5.5
      radial_multiplier  1
      angular_grids specified
        division   0.1028  110
        division   0.1495  194
        division   0.8411  302
  #      division   0.9338  434
  #      division   0.9935  590
  #      division   1.0783  770
  #      division   3.5126  974
  #      outer_grid  974
        outer_grid  302
  ################################################################################
  #
  #  Definition of "minimal" basis
  #
  ################################################################################
  #     valence basis states
      valence      6  s   2.
      valence      5  p   6.
      valence      5  d   1.
      valence      4  f   1.
  #     ion occupancy
      ion_occ      6  s   1.
      ion_occ      5  p   6.
      ion_occ      5  d   0.
      ion_occ      4  f   0.
  ################################################################################
  #
  #  Suggested additional basis functions. For production calculations,
  #  uncomment them one after another (the most important basis functions are
  #  listed first).
  #
  #  Constructed for dimers: 2.0, 2.375, 2.875, 3.5, 4.5 AA
  #
  ################################################################################
  #  "First tier" - improvements: -540.10 meV to -12.77 meV
       hydro 4 d 4.8
       hydro 5 g 11.2
       hydro 4 f 7.6
       hydro 2 p 1.8
       hydro 3 s 2.7
  #  "Second tier" - improvements: -48.86 meV to -0.65 meV
  #     hydro 6 h 14.8
  #     hydro 4 f 5.2
  #     hydro 3 d 3
  #     hydro 3 d 2.2
  #     hydro 5 g 11.6
  #     hydro 3 p 2.8
  #     ionic 6 s auto
  #  "Third tier" - max. impr. -2.32 meV, min. impr. -0.31 meV
  #     hydro 6 h 15.2
  #     hydro 4 f 8.2
  #     hydro 5 g 30
  #     hydro 6 d 16.4
  #     hydro 5 f 15.6
  #     hydro 5 p 17.6
  #     hydro 4 s 7.2
  #  Fourth tier  - max. impr. -0.36 meV, min. impr. -0.17 meV
  #     hydro 5 g 20
  #     hydro 4 f 16.4
  #     hydro 6 d 20
  #     hydro 6 p 9.2
  #     hydro 1 s 0.85
  #     hydro 6 h 14
  ################################################################################
  #
  #  FHI-aims code project
  #  VB, Fritz-Haber Institut, 2009
  #
  #  Suggested "light" defaults for O atom (to be pasted into control.in file)
  #  Be sure to double-check any results obtained with these settings for post-processing,
  #  e.g., with the "tight" defaults and larger basis sets.
  #
  ################################################################################
    species        O
  #     global species definitions
      nucleus             8
      mass                15.9994
  #
      l_hartree           4
  #
      cut_pot             3.5  1.5  1.0
      basis_dep_cutoff    1e-4
  #
      radial_base         36 5.0
      radial_multiplier   1
       angular_grids specified
        division   0.2659   50
        division   0.4451  110
        division   0.6052  194
        division   0.7543  302
  #      division   0.8014  434
  #      division   0.8507  590
  #      division   0.8762  770
  #      division   0.9023  974
  #      division   1.2339 1202
  #      outer_grid 974
        outer_grid 302
  ################################################################################
  #
  #  Definition of "minimal" basis
  #
  ################################################################################
  #     valence basis states
      valence      2  s   2.
      valence      2  p   4.
  #     ion occupancy
      ion_occ      2  s   1.
      ion_occ      2  p   3.
  ################################################################################
  #
  #  Suggested additional basis functions. For production calculations,
  #  uncomment them one after another (the most important basis functions are
  #  listed first).
  #
  #  Constructed for dimers: 1.0 A, 1.208 A, 1.5 A, 2.0 A, 3.0 A
  #
  ################################################################################
  #  "First tier" - improvements: -699.05 meV to -159.38 meV
       hydro 2 p 1.8
       hydro 3 d 7.6
       hydro 3 s 6.4
  #  "Second tier" - improvements: -49.91 meV to -5.39 meV
  #     hydro 4 f 11.6
  #     hydro 3 p 6.2
  #     hydro 3 d 5.6
  #     hydro 5 g 17.6
  #     hydro 1 s 0.75
  #  "Third tier" - improvements: -2.83 meV to -0.50 meV
  #     ionic 2 p auto
  #     hydro 4 f 10.8
  #     hydro 4 d 4.7
  #     hydro 2 s 6.8
  #  "Fourth tier" - improvements: -0.40 meV to -0.12 meV
  #     hydro 3 p 5
  #     hydro 3 s 3.3
  #     hydro 5 g 15.6
  #     hydro 4 f 17.6
  #     hydro 4 d 14
  # Further basis functions - -0.08 meV and below
  #     hydro 3 s 2.1
  #     hydro 4 d 11.6
  #     hydro 3 p 16
  #     hydro 2 s 17.2
  
  
  -----------------------------------------------------------------------
  Completed first pass over input file control.in .
  -----------------------------------------------------------------------
  
  
  -----------------------------------------------------------------------
  Parsing geometry.in (first pass over file, find array dimensions only).
  The contents of geometry.in will be repeated verbatim below
  unless switched off by setting 'verbatim_writeout .false.' .
  in the first line of geometry.in .
  -----------------------------------------------------------------------
  
  #=======================================================
  # FHI-aims file: ./geometry.in
  # Created using the Atomic Simulation Environment (ASE)
  # Sat May  4 10:15:27 2019
  #=======================================================
  lattice_vector 0.0000000000000000 2.8540000000000001 2.8540000000000001
  lattice_vector 2.8540000000000001 0.0000000000000000 2.8540000000000001
  lattice_vector 2.8540000000000001 2.8540000000000001 0.0000000000000000
  atom_frac 0.0000000000000000 0.0000000000000000 -0.0000000000000000 Ce
  atom_frac 0.2500000000000001 0.2500000000000001 0.2500000000000000 O
  atom_frac 0.7500000000000002 0.7500000000000002 0.7499999999999999 O
  symmetry_n_params 1 1 0
  symmetry_params a
  symmetry_lv 0 , (1.0/2.0)*a , (1.0/2.0)*a
  symmetry_lv (1.0/2.0)*a , 0 , (1.0/2.0)*a
  symmetry_lv (1.0/2.0)*a , (1.0/2.0)*a , 0
  symmetry_frac 0 , 0.0 , 0.0
  symmetry_frac (1.0/4.0) , (1.0/4.0) , (1.0/4.0)
  symmetry_frac (3.0/4.0) , (3.0/4.0) , (3.0/4.0)
  
  -----------------------------------------------------------------------
  Completed first pass over input file geometry.in .
  -----------------------------------------------------------------------
  

  Basic array size parameters:
  | Number of species                 :        2
  | Number of atoms                   :        3
  | Number of lattice vectors         :        3
  | Max. basis fn. angular momentum   :        4
  | Max. atomic/ionic basis occupied n:        6
  | Max. number of basis fn. types    :        2
  | Max. radial fns per species/type  :       14
  | Max. logarithmic grid size        :     1463
  | Max. radial integration grid size :       66
  | Max. angular integration grid size:      302
  | Max. angular grid division number :        8
  | Radial grid for Hartree potential :     1463
  | Number of spin channels           :        1
  | Max. number of (n,l) shells per species with '+U' treatment:        1

------------------------------------------------------------
          Reading file control.in.
------------------------------------------------------------
  Requested output level: MD_light
  XC: Using PBEsol gradient-corrected functionals.
  Convergence accuracy of self-consistent charge density:  0.1000E-05
  Convergence accuracy of forces:  0.5000E-03
  Scalar relativistic treatment of kinetic energy: on-site free-atom approximation to ZORA.
  Found k-point grid:         1         1         1
  Fixing petukhov mixing factor to   1.000000000000
 
  Reading configuration options for species Ce                  .
  | Found nuclear charge :  58.0000
  | Found atomic mass :    140.116000000000      amu
  | Found l_max for Hartree potential  :   4
  | Found request for '+U' treatment for  4 f shell, U =     4.500000 eV.
  | Found cutoff potl. onset [A], width [A], scale factor :    4.00000    1.50000    1.00000
  | Threshold for basis-dependent cutoff potential is   0.100000E-03
  | Found data for basic radial integration grid :    66 points, outermost radius =    5.500 A
  | Found multiplier for basic radial grid :   1
  | Found angular grid specification: user-specified.
  | Specified grid contains     4 separate shells.
  | Check grid settings after all constraints further below.
  | Found free-atom valence shell :  6 s   2.000
  | Found free-atom valence shell :  5 p   6.000
  | Found free-atom valence shell :  5 d   1.000
  | Found free-atom valence shell :  4 f   1.000
  | No ionic wave fns used. Skipping ion_occ.
  | No ionic wave fns used. Skipping ion_occ.
  | No ionic wave fns used. Skipping ion_occ.
  | No ionic wave fns used. Skipping ion_occ.
  | Found hydrogenic basis function :  4 d   4.800
  | Found hydrogenic basis function :  5 g  11.200
  | Found hydrogenic basis function :  4 f   7.600
  | Found hydrogenic basis function :  2 p   1.800
  | Found hydrogenic basis function :  3 s   2.700
  Species Ce                  : Missing cutoff potential type.
  Defaulting to exp(1/x)/(1-x)^2 type cutoff potential.
  Species Ce: No 'logarithmic' tag. Using default grid for free atom:
  | Default logarithmic grid data [bohr] : 0.1000E-03 0.1000E+03 0.1012E+01
  Species Ce: On-site basis accuracy parameter (for Gram-Schmidt orthonormalisation) not specified.
  Using default value basis_acc =  0.1000000E-03.
  Species Ce                  : Using default innermost maximum threshold i_radial=  2 for radial functions.
  Species Ce                  : Default cutoff onset for free atom density etc. : 0.40000000E+01 AA.
  Species Ce                  : Basic radial grid will be enhanced according to radial_multiplier =   1, to contain    66 grid points.
 
  Reading configuration options for species O                   .
  | Found nuclear charge :   8.0000
  | Found atomic mass :    15.9994000000000      amu
  | Found l_max for Hartree potential  :   4
  | Found cutoff potl. onset [A], width [A], scale factor :    3.50000    1.50000    1.00000
  | Threshold for basis-dependent cutoff potential is   0.100000E-03
  | Found data for basic radial integration grid :    36 points, outermost radius =    5.000 A
  | Found multiplier for basic radial grid :   1
  | Found angular grid specification: user-specified.
  | Specified grid contains     5 separate shells.
  | Check grid settings after all constraints further below.
  | Found free-atom valence shell :  2 s   2.000
  | Found free-atom valence shell :  2 p   4.000
  | No ionic wave fns used. Skipping ion_occ.
  | No ionic wave fns used. Skipping ion_occ.
  | Found hydrogenic basis function :  2 p   1.800
  | Found hydrogenic basis function :  3 d   7.600
  | Found hydrogenic basis function :  3 s   6.400
  Species O                   : Missing cutoff potential type.
  Defaulting to exp(1/x)/(1-x)^2 type cutoff potential.
  Species O : No 'logarithmic' tag. Using default grid for free atom:
  | Default logarithmic grid data [bohr] : 0.1000E-03 0.1000E+03 0.1012E+01
  Species O : On-site basis accuracy parameter (for Gram-Schmidt orthonormalisation) not specified.
  Using default value basis_acc =  0.1000000E-03.
  Species O                   : Using default innermost maximum threshold i_radial=  2 for radial functions.
  Species O                   : Default cutoff onset for free atom density etc. : 0.35000000E+01 AA.
  Species O                   : Basic radial grid will be enhanced according to radial_multiplier =   1, to contain    36 grid points.
 
  Finished reading input file 'control.in'.
 
------------------------------------------------------------


------------------------------------------------------------
          Reading geometry description geometry.in.
------------------------------------------------------------
  | The smallest distance between any two atoms is         2.47163650 AA.
  | The first atom of this pair is atom number                      1 .
  | The second atom of this pair is atom number                     3 .
  | Wigner-Seitz cell of the first atom image           0     0     0 .
  | (The Wigner-Seitz cell of the second atom is 0 0 0  by definition.)

  Symmetry information by spglib:
  | Precision set to  0.1E-04
  | Number of Operations  : 48
  | Space group           : 225
  | International         : Fm-3m
  | Schoenflies           : Oh^5
  Input structure read successfully.
  The structure contains        3 atoms,  and a total of         74.000 electrons.

  Input geometry:
  | Unit cell:
  |        0.00000000        2.85400000        2.85400000
  |        2.85400000        0.00000000        2.85400000
  |        2.85400000        2.85400000        0.00000000
  | Atomic structure:
  |       Atom                x [A]            y [A]            z [A]
  |    1: Species Ce            0.00000000        0.00000000        0.00000000
  |    2: Species O             1.42700000        1.42700000        1.42700000
  |    3: Species O             4.28100000        4.28100000        4.28100000

  Lattice parameters for 3D lattice (in Angstroms) :     4.036166    4.036166    4.036166
  Angle(s) between unit vectors (in degrees)       :    60.000000   60.000000   60.000000


  Quantities derived from the lattice vectors:
  | Reciprocal lattice vector 1: -1.100768  1.100768  1.100768
  | Reciprocal lattice vector 2:  1.100768 -1.100768  1.100768
  | Reciprocal lattice vector 3:  1.100768  1.100768 -1.100768
  | Unit cell volume                               :   0.464935E+02  A^3

 
  Finished reading input file 'control.in'.
 

------------------------------------------------------------
          Reading geometry description geometry.in.
------------------------------------------------------------
 
  Consistency checks for stacksize environment parameter are next.
 
  | Maximum stacksize for task 0: unlimited
  | Maximum stacksize for task 1: unlimited
  | Maximum stacksize for task 2: unlimited
  | Maximum stacksize for task 3: unlimited
  | Maximum stacksize for task 4: unlimited
  | Maximum stacksize for task 5: unlimited
  | Maximum stacksize for task 6: unlimited
  | Maximum stacksize for task 7: unlimited
  | Current stacksize for task 0: unlimited
  | Current stacksize for task 1: unlimited
  | Current stacksize for task 2: unlimited
  | Current stacksize for task 3: unlimited
  | Current stacksize for task 4: unlimited
  | Current stacksize for task 5: unlimited
  | Current stacksize for task 6: unlimited
  | Current stacksize for task 7: unlimited
 
  Consistency checks for the contents of control.in are next.
 
  MPI_IN_PLACE appears to work with this MPI implementation.
  | Keeping use_mpi_in_place .true. (see manual).
  Target number of points in a grid batch is not set. Defaulting to  100
  Method for grid partitioning is not set. Defaulting to parallel hash+maxmin partitioning.
  Batch size limit is not set. Defaulting to    200
  By default, will store active basis functions for each batch.
  If in need of memory, prune_basis_once .false. can be used to disable this option.
  communication_type for Hartree potential was not specified.
  Defaulting to calc_hartree .
  Defaulting to Pulay charge density mixer.
  Pulay mixer: Number of relevant iterations not set.
  Defaulting to    8 iterations.
  Pulay mixer: Number of initial linear mixing iterations not set.
  Defaulting to    0 iterations.
  Work space size for distributed Hartree potential not set.
  Defaulting to   0.200000E+03 MB.
  Mixing parameter for charge density mixing has not been set.
  Using default: charge_mix_param =     0.0500.
  The mixing parameter will be adjusted in iteration number     2 of the first full s.c.f. cycle only.
  Algorithm-dependent basis array size parameters:
  | n_max_pulay                         :        8
  Maximum number of self-consistency iterations not provided.
  Presetting  1000 iterations.
  Presetting      1001 iterations before the initial mixing cycle
  is restarted anyway using the sc_init_iter criterion / keyword.
  Presetting a factor      1.000 between actual scf density residual
  and density convergence criterion sc_accuracy_rho below which sc_init_iter
  takes no effect.
  Geometry relaxation not requested: no relaxation will be performed.
  Handling of forces: Unphysical translation and rotation will be removed from forces.
  No accuracy limit for integral partition fn. given. Defaulting to  0.1000E-14.
  No threshold value for u(r) in integrations given. Defaulting to  0.1000E-05.
  No occupation type (smearing scheme) given. Defaulting to Gaussian broadening, width =  0.1000E-01 eV.
  The width will be adjusted in iteration number     2 of the first full s.c.f. cycle only.
  S.C.F. convergence parameters will be adjusted in iteration number     2 of the first full s.c.f. cycle only.
  No accuracy for occupation numbers given. Defaulting to  0.1000E-12.
  No threshold value for occupation numbers given. Defaulting to  0.0000E+00.
  No accuracy for fermi level given. Defaulting to  0.1000E-19.
  Maximum # of iterations to find E_F not set. Defaulting to  200.
  Preferred method for the eigenvalue solver ('KS_method') not specified in 'control.in'.
  Calling BLACS routine to test compilation state
  Since ScaLAPACK support is enabled, defaulting to ELPA (via ELSI).
  Will not use alltoall communication since running on < 1024 CPUs.
  Threshold for basis singularities not set.
  Default threshold for basis singularities:  0.1000E-04
  partition_type (choice of integration weights) for integrals was not specified.
  | Using a version of the partition function of Stratmann and coworkers ('stratmann_sparse').
  | At each grid point, the set of atoms used to build the partition table is smoothly restricted to
  | only those atoms whose free-atom density would be non-zero at that grid point.
  Partitioning for Hartree potential was not defined. Using partition_type for integrals.
  | Adjusted default value of keyword multip_moments_threshold to:       0.10000000E-11
  | This value may affect high angular momentum components of the Hartree potential in periodic systems.
  Spin handling was not defined in control.in. Defaulting to unpolarized case.
  Angular momentum expansion for Kerker preconditioner not set explicitly.
  | Using default value of   0
  No explicit requirement for turning off preconditioner.
  | By default, it will be turned off when the charge convergence reaches
  | sc_accuracy_rho  =   0.100000E-05
  No special mixing parameter while Kerker preconditioner is on.
  Using default: charge_mix_param =     0.0500.
  No q(lm)/r^(l+1) cutoff set for long-range Hartree potential.
  | Using default value of  0.100000E-09 .
  | Verify using the multipole_threshold keyword.
  Defaulting to new monopole extrapolation.
  Density update method: automatic selection selected.
  Using density matrix based charge density update.
 * Warning: DFT+U requires using density matrix based charge density update.
  Using density matrix based charge density update.
  Using packed matrix style: index .
  Defaulting to use time-reversal symmetry for k-point grid.
  Charge integration errors on the 3D integration grid will be compensated
  by explicit normalization and distribution of residual charges.
  Use the "compensate_multipole_errors" flag to change this behaviour.
 
  Consistency checks for the contents of geometry.in are next.
 

  Range separation radius for Ewald summation (hartree_convergence_parameter):      3.53468224 bohr.
  Number of empty states per atom not set in control.in - providing a guess from actual geometry.
  | Total number of empty states used during s.c.f. cycle:       15
  If you use a very high smearing, use empty_states (per atom!) in control.in to increase this value.

  Structure-dependent array size parameters: 
  | Maximum number of distinct radial functions  :       25
  | Maximum number of basis functions            :       93
  | Number of Kohn-Sham states (occupied + empty):       52
------------------------------------------------------------

------------------------------------------------------------
          Preparing all fixed parts of the calculation.
------------------------------------------------------------
  Determining machine precision:
    2.225073858507201E-308
  Setting up grids for atomic and cluster calculations.

  Creating wave function, potential, and density for free atoms.

  Species: Ce

  List of occupied orbitals and eigenvalues:
    n    l              occ      energy [Ha]    energy [eV]
    1    0           2.0000     -1549.439054    -42162.3819
    2    0           2.0000      -238.998296     -6503.4745
    3    0           2.0000       -51.099363     -1390.4844
    4    0           2.0000       -10.303876      -280.3827
    5    0           2.0000        -1.470610       -40.0173
    6    0           2.0000        -0.120442        -3.2774
    2    1           6.0000      -213.899143     -5820.4918
    3    1           6.0000       -43.199537     -1175.5192
    4    1           6.0000        -7.733280      -210.4332
    5    1           6.0000        -0.833078       -22.6692
    3    2          10.0000       -32.009252      -871.0161
    4    2          10.0000        -4.039604      -109.9232
    5    2           1.0000        -0.095396        -2.5959
    4    3           1.0000        -0.179652        -4.8886


  Species: O

  List of occupied orbitals and eigenvalues:
    n    l              occ      energy [Ha]    energy [eV]
    1    0           2.0000       -18.926989      -515.0296
    2    0           2.0000        -0.880247       -23.9527
    2    1           4.0000        -0.331514        -9.0210


  Adding cutoff potential to free-atom effective potential.
  Creating fixed part of basis set: Ionic, confined, hydrogenic.
 
  Ce                   hydrogenic:
 
  List of hydrogenic basis orbitals: 
    n    l      effective z      eigenvalue [eV]  inner max. [A]     outer max. [A]     outer radius [A]   
    4    2         4.800000       -19.4624           0.749324           2.307386           5.107649
    5    4        11.200000       -68.2675           1.177909           1.177909           4.357134
    4    3         7.600000       -49.1160           1.108066           1.108066           4.464979
    2    1         1.800000       -11.0067           1.177909           1.177909           5.045588
    3    0         2.700000       -10.6630           0.145623           2.482994           5.107649
 
 
  O                    hydrogenic:
 
  List of hydrogenic basis orbitals: 
    n    l      effective z      eigenvalue [eV]  inner max. [A]     outer max. [A]     outer radius [A]   
    2    1         1.800000       -10.9749           1.164242           1.164242           4.578029
    3    2         7.600000       -87.3180           0.624125           0.624125           3.251020
    3    0         6.400000       -61.9207           0.061167           1.081902           4.001998
 
  Creating atomic-like basis functions for current effective potential.

  Species Ce                  :

  List of atomic basis orbitals and eigenvalues:
    n    l      energy [Ha]    energy [eV]    outer radius [A]
    1    0     -1549.439054    -42162.3819       0.172807
    2    0      -238.998296     -6503.4745       0.465168
    3    0       -51.099363     -1390.4844       1.004828
    4    0       -10.303876      -280.3827       2.170571
    5    0        -1.470610       -40.0173       4.688742
    6    0        -0.120442        -3.2774       5.107649
    2    1      -213.899143     -5820.4918       0.476681
    3    1       -43.199537     -1175.5192       1.068164
    4    1        -7.733280      -210.4332       2.423021
    5    1        -0.833078       -22.6692       4.863894
    3    2       -32.009252      -871.0161       1.177909
    4    2        -4.039604      -109.9232       3.170740
    5    2        -0.095396        -2.5959       5.045588
    4    3        -0.179652        -4.8886       4.984282


  Species O                   :

  List of atomic basis orbitals and eigenvalues:
    n    l      energy [Ha]    energy [eV]    outer radius [A]
    1    0       -18.926989      -515.0296       1.415765
    2    0        -0.880247       -23.9527       4.413171
    2    1        -0.331514        -9.0210       4.522403

  Assembling full basis from fixed parts.
 * Warning - Since '+U' treatment was requested,
 * the basis-dependent cutoff is turned off automatically.
  | Species Ce :   atomic orbital   1 s accepted.
  | Species Ce :   atomic orbital   2 s accepted.
  | Species Ce :   atomic orbital   3 s accepted.
  | Species Ce :   atomic orbital   4 s accepted.
  | Species Ce :   atomic orbital   5 s accepted.
  | Species Ce :   atomic orbital   6 s accepted.
  | Species Ce :    hydro orbital   3 s accepted.
  | Species Ce :   atomic orbital   2 p accepted.
  | Species Ce :   atomic orbital   3 p accepted.
  | Species Ce :   atomic orbital   4 p accepted.
  | Species Ce :   atomic orbital   5 p accepted.
  | Species Ce :    hydro orbital   2 p accepted.
  | Species Ce :   atomic orbital   3 d accepted.
  | Species Ce :   atomic orbital   4 d accepted.
  | Species Ce :   atomic orbital   5 d accepted.
  | Species Ce :    hydro orbital   4 d accepted.
  | Species Ce :   atomic orbital   4 f accepted.
  | Species Ce :    hydro orbital   4 f accepted.
  | Species Ce :    hydro orbital   5 g accepted.
 * Warning - Since '+U' treatment was requested,
 * the basis-dependent cutoff is turned off automatically.
  | Species O :   atomic orbital   1 s accepted.
  | Species O :   atomic orbital   2 s accepted.
  | Species O :    hydro orbital   3 s accepted.
  | Species O :   atomic orbital   2 p accepted.
  | Species O :    hydro orbital   2 p accepted.
  | Species O :    hydro orbital   3 d accepted.
 
  Basis size parameters after reduction:
  | Total number of radial functions:       25
  | Total number of basis functions :       93
 
  Per-task memory consumption for arrays in subroutine allocate_ext:
  |           9.367048MB.
  Testing on-site integration grid accuracy.
  |  Species  Function  <phi|h_atom|phi> (log., in eV)  <phi|h_atom|phi> (rad., in eV)
           1        1             -42162.3818530386             -42162.2320016571 ***
           1        2              -6503.4745146819              -6503.4719669070
           1        3              -1390.4844033274              -1390.4842856598
           1        4               -280.3827411046               -280.3827323573
           1        5                -40.0173473818                -40.0173465528
           1        6                 -3.3022212062                 -3.3411236037 ***
           1        7                 10.2929353896                 10.1933508363 ***
           1        8              -5820.4918358490              -5820.4918330966
           1        9              -1175.5192248381              -1175.5192193527
           1       10               -210.4332448223               -210.4332420852
           1       11                -22.6692108421                -22.6692120934
           1       12                  1.6287070413                  1.6146549545
           1       13               -871.0160508565               -871.0160486656
           1       14               -109.9232264975               -109.9232252406
           1       15                 -2.6017110203                 -2.6109810818
           1       16                  7.1382138687                  7.1025078828 ***
           1       17                 -4.8886032112                 -4.8886599699
           1       18                 21.1230621900                 21.1228228066
           1       19                 36.3427612142                 36.3426869202
           2       20               -515.0295626295               -515.0294562738
           2       21                -23.9527496044                -23.9527504259
           2       22                 17.5187107785                 17.5187708358
           2       23                 -9.0211123393                 -9.0212703513
           2       24                  8.3047696391                  8.2854840999
           2       25                 45.8428042125                 45.8427461222
 * Note: Onsite integrals marked "***" above are less accurate than
 * onsite_accuracy_threshold =    0.03000 eV. Usually, this is harmless.
 * However, one integral did have a negative value. This integral could be important.
 * When in doubt, tighten the "radial" and/or "radial_multiplier" flags to check.

  Preparing densities etc. for the partition functions (integrals / Hartree potential).

  Preparations completed.
  max(cpu_time)          :      0.333 s.
  Wall clock time (cpu1) :      0.334 s.
------------------------------------------------------------

------------------------------------------------------------
          Begin self-consistency loop: Initialization.

          Date     :  20221014, Time     :  204030.977
------------------------------------------------------------

  Initializing index lists of integration centers etc. from given atomic structure:
  Mapping all atomic coordinates to central unit cell.

  Initializing the k-points
  Using symmetry for reducing the k-points
  | k-points reduced from:        1 to        1
  | Number of k-points                             :         1
  The eigenvectors in the calculations are REAL.
  | Number of basis functions in the Hamiltonian integrals :      3041
  | Number of basis functions in a single unit cell        :        93
  | Number of centers in hartree potential         :       915
  | Number of centers in hartree multipole         :       519
  | Number of centers in electron density summation:       343
  | Number of centers in basis integrals           :       397
  | Number of centers in integrals                 :       151
  | Number of centers in hamiltonian               :       417
  | Consuming          2 KiB for k_phase.
  | Number of super-cells (origin) [n_cells]                     :        1331
  | Number of super-cells (after PM_index) [n_cells]             :         190
  | Number of super-cells in hamiltonian [n_cells_in_hamiltonian]:         190
  | Size of matrix packed + index [n_hamiltonian_matrix_size] :      219154
  | Estimated reciprocal-space cutoff momentum G_max:         2.65314941 bohr^-1 .
  | Reciprocal lattice points for long-range Hartree potential:     112
  Using simple linear distribution as default method for k-point parallelism.
  * Using 8 tasks for Scalapack Eigenvalue solver.
  Detailed listing of tasks and assigned k-points:
   Task     0 k-point     1 on node111
   Task     1 k-point     1 on node111
   Task     2 k-point     1 on node111
   Task     3 k-point     1 on node111
   Task     4 k-point     1 on node111
   Task     5 k-point     1 on node111
   Task     6 k-point     1 on node111
   Task     7 k-point     1 on node111
  K-point:     1 Tasks:     8 split into      4 X      2 BLACS grid
  Calculating block size based on n_basis =           93  max_nprow =            4  max_npcol =            2
  ScaLAPACK block size set to:           16
  Allocating        0.012 MB for ovlp
  Allocating        0.012 MB for ham
  Allocating        0.012 MB for eigenvec
  Required Scalapack workspace - INTEGER:            1  REAL:             1
  Partitioning the integration grid into batches with parallel hashing+maxmin method.
  | Number of batches:      432
  | Maximal batch size:     111
  | Minimal batch size:      52
  | Average batch size:      67.861
  | Standard deviation of batch sizes:      12.319

  Integration load balanced across     8 MPI tasks.
  Work distribution over tasks is as follows:
  Task     0 has       3684 integration points.
  Task     1 has       3724 integration points.
  Task     2 has       3650 integration points.
  Task     3 has       3631 integration points.
  Task     4 has       3644 integration points.
  Task     5 has       3633 integration points.
  Task     6 has       3670 integration points.
  Task     7 has       3680 integration points.
  Initializing partition tables, free-atom densities, potentials, etc. across the integration grid (initialize_grid_storage).
  | initialize_grid_storage: Actual outermost partition radius vs. multipole_radius_free
  | (-- VB: in principle, multipole_radius_free should be larger, hence this output)
  | Species        1: Confinement radius =              5.500000000000000 AA, multipole_radius_free =              5.563982661062307 AA.
  | Species        1: outer_partition_radius set to              5.563982661062307 AA .
  | Species        2: Confinement radius =              4.999999999999999 AA, multipole_radius_free =              5.048384829883283 AA.
  | Species        2: outer_partition_radius set to              5.048384829883283 AA .
  | The sparse table of interatomic distances needs        882.58 kbyte instead of      1260.87 kbyte of memory.
  | Net number of integration points:    29316
  | of which are non-zero points    :    26290
  | Numerical average free-atom electrostatic potential    :    -20.07607204 eV
  Renormalizing the initial density to the exact electron count on the 3D integration grid.
  | Initial density: Formal number of electrons (from input files) :      74.0000000000
  | Integrated number of electrons on 3D grid     :      74.0030574553
  | Charge integration error                      :       0.0030574553
  | Normalization factor for density and gradient :       0.9999586847
  Renormalizing the free-atom superposition density to the exact electron count on the 3D integration grid.
  | Formal number of electrons (from input files) :      74.0000000000
  | Integrated number of electrons on 3D grid     :      74.0030574553
  | Charge integration error                      :       0.0030574553
  | Normalization factor for density and gradient :       0.9999586847
  Obtaining max. number of non-zero basis functions in each batch (get_n_compute_maxes).
  | Maximal number of non-zero basis functions:      979 in task     0
  | Maximal number of non-zero basis functions:      947 in task     1
  | Maximal number of non-zero basis functions:      979 in task     2
  | Maximal number of non-zero basis functions:      947 in task     3
  | Maximal number of non-zero basis functions:      979 in task     4
  | Maximal number of non-zero basis functions:      935 in task     5
  | Maximal number of non-zero basis functions:      941 in task     6
  | Maximal number of non-zero basis functions:      952 in task     7
  Integrating Hamiltonian matrix: batch-based integration.
  Time summed over all CPUs for integration: real work        4.579 s, elapsed        4.655 s
  Integrating overlap matrix.
  Time summed over all CPUs for integration: real work        3.162 s, elapsed        3.287 s
  Decreasing sparse matrix size:
  | Tolerance:  0.1000E-12
  Hamiltonian matrix
  | Array has   160502 nonzero elements out of   219154 elements
  | Sparsity factor is 0.268
  Overlap matrix
  | Array has   152645 nonzero elements out of   219154 elements
  | Sparsity factor is 0.303
  New size of hamiltonian matrix:      162580
  Not deallocating overlap matrix.

  Updating Kohn-Sham eigenvalues and eigenvectors using ELSI and the ELPA eigensolver.

  Obtaining occupation numbers and chemical potential using ELSI.
  | Chemical potential (Fermi level):    -6.85532668 eV
  Writing Kohn-Sham eigenvalues.

  State    Occupation    Eigenvalue [Ha]    Eigenvalue [eV]
      1       2.00000       -1548.685126       -42141.86642
      2       2.00000        -238.889839        -6500.52327
      3       2.00000        -213.832943        -5818.69043
      4       2.00000        -213.832943        -5818.69043
      5       2.00000        -213.832943        -5818.69043
      6       2.00000         -51.067493        -1389.61719
      7       2.00000         -43.181612        -1175.03144
      8       2.00000         -43.181612        -1175.03144
      9       2.00000         -43.181612        -1175.03144
     10       2.00000         -32.001724         -870.81122
     11       2.00000         -32.001724         -870.81122
     12       2.00000         -32.001724         -870.81122
     13       2.00000         -32.001723         -870.81118
     14       2.00000         -32.001723         -870.81118
     15       2.00000         -18.935581         -515.26338
     16       2.00000         -18.935581         -515.26338
     17       2.00000         -10.292733         -280.07952
     18       2.00000          -7.726357         -210.24487
     19       2.00000          -7.726357         -210.24487
     20       2.00000          -7.726357         -210.24487
     21       2.00000          -4.039392         -109.91745
     22       2.00000          -4.039392         -109.91745
     23       2.00000          -4.039392         -109.91745
     24       2.00000          -4.039281         -109.91444
     25       2.00000          -4.039281         -109.91444
     26       2.00000          -1.494735          -40.67382
     27       2.00000          -1.014998          -27.61949
     28       2.00000          -0.991790          -26.98798
     29       2.00000          -0.855385          -23.27622
     30       2.00000          -0.855385          -23.27622
     31       2.00000          -0.855385          -23.27622
     32       2.00000          -0.525865          -14.30951
     33       2.00000          -0.525865          -14.30951
     34       2.00000          -0.525865          -14.30951
     35       2.00000          -0.434782          -11.83101
     36       2.00000          -0.434782          -11.83101
     37       2.00000          -0.434782          -11.83101
     38       0.00000          -0.186152           -5.06544
     39       0.00000          -0.186152           -5.06544
     40       0.00000          -0.186152           -5.06544
     41       0.00000          -0.181506           -4.93904
     42       0.00000          -0.181344           -4.93461
     43       0.00000          -0.181344           -4.93461
     44       0.00000          -0.181344           -4.93461
     45       0.00000          -0.144920           -3.94349
     46       0.00000          -0.122919           -3.34480
     47       0.00000          -0.122919           -3.34480
     48       0.00000           0.024730            0.67294
     49       0.00000           0.024730            0.67294
     50       0.00000           0.024730            0.67294
     51       0.00000           0.315332            8.58063
     52       0.00000           0.315332            8.58063

  Highest occupied state (VBM) at    -11.83100815 eV (relative to internal zero)
  | Occupation number:      2.00000000
  | K-point:       1 at    0.000000    0.000000    0.000000 (in units of recip. lattice)

  Lowest unoccupied state (CBM) at    -5.06544184 eV (relative to internal zero)
  | Occupation number:      0.00000000
  | K-point:       1 at    0.000000    0.000000    0.000000 (in units of recip. lattice)

  ESTIMATED overall HOMO-LUMO gap:      6.76556631 eV between HOMO at k-point 1 and LUMO at k-point 1
  The gap value is above 0.2 eV. Unless you are using a very sparse k-point grid,
  this system is most likely an insulator or a semiconductor.
  Calculating total energy contributions from superposition of free atom densities.

  Total energy components:
  | Sum of eigenvalues            :       -5740.36812864 Ha     -156203.36432001 eV
  | XC energy correction          :        -224.16332097 Ha       -6099.79431780 eV
  | XC potential correction       :         294.59485636 Ha        8016.33390811 eV
  | Free-atom electrostatic energy:       -3499.96182494 Ha      -95238.80695366 eV
  | Hartree energy correction     :           0.00000000 Ha           0.00000000 eV
  | DFT+U energy correction       :           0.00000000 Ha           0.00000000 eV
  | Entropy correction            :           0.00000000 Ha           0.00000000 eV
  | ---------------------------
  | Total energy                  :       -9169.89841819 Ha     -249525.63168336 eV
  | Total energy, T -> 0          :       -9169.89841819 Ha     -249525.63168336 eV  <-- do not rely on this value for anything but (periodic) metals
  | Electronic free energy        :       -9169.89841819 Ha     -249525.63168336 eV

  Derived energy quantities:
  | Kinetic energy                :        9719.39758315 Ha      264478.26474358 eV
  | Electrostatic energy          :      -18665.13268037 Ha     -507904.10210914 eV
  | Energy correction for multipole
  | error in Hartree potential    :           0.00000000 Ha           0.00000000 eV
  | Sum of eigenvalues per atom                           :      -52067.78810667 eV
  | Total energy (T->0) per atom                          :      -83175.21056112 eV  <-- do not rely on this value for anything but (periodic) metals
  | Electronic free energy per atom                       :      -83175.21056112 eV
  Initialize hartree_potential_storage
  Max. number of atoms included in rho_multipole:            3

  End scf initialization - timings             :  max(cpu_time)    wall_clock(cpu1)
  | Time for scf. initialization               :        1.430 s           1.441 s
  | Boundary condition initialization          :        0.069 s           0.070 s
  | Integration                                :        1.005 s           1.006 s
  | Solution of K.-S. eqns.                    :        0.009 s           0.012 s
  | Grid partitioning                          :        0.059 s           0.060 s
  | Preloading free-atom quantities on grid    :        0.223 s           0.223 s
  | Free-atom superposition energy             :        0.026 s           0.026 s
  | Total energy evaluation                    :        0.000 s           0.001 s

  Partial memory accounting:
  | Current value for overall tracked memory usage:
  |   Minimum:        3.119 MB (on task 5)
  |   Maximum:        3.137 MB (on task 0)
  |   Average:        3.127 MB
  | Peak value for overall tracked memory usage:
  |   Minimum:       13.264 MB (on task 5 after allocating wave)
  |   Maximum:       14.038 MB (on task 0 after allocating wave)
  |   Average:       13.655 MB
  | Largest tracked array allocation so far:
  |   Minimum:        6.670 MB (hamiltonian_shell on task 5)
  |   Maximum:        7.312 MB (hamiltonian_shell on task 0)
  |   Average:        6.995 MB
  Note:  These values currently only include a subset of arrays which are explicitly tracked.
  The "true" memory usage will be greater.
------------------------------------------------------------
Convergence:    q app. |  density  | eigen (eV) | Etot (eV) | forces (eV/A) |       CPU time |     Clock time
  SCF    1 : -0.21E-12 |  0.49E+00 |  -0.26E+02 |  0.13E+01 |             . |        2.292 s |        2.293 s
  SCF    2 : -0.30E-13 |  0.46E+00 |  -0.26E+03 |  0.26E+01 |             . |        2.438 s |        2.438 s
  SCF    3 : -0.14E-12 |  0.73E+00 |   0.12E+03 |  0.19E+01 |             . |        2.407 s |        2.407 s
  SCF    4 : -0.13E-12 |  0.50E+00 |   0.11E+03 |  0.34E+00 |             . |        2.380 s |        2.379 s
  SCF    5 : -0.18E-12 |  0.11E+00 |  -0.84E+01 | -0.14E+01 |             . |        2.383 s |        2.381 s
  SCF    6 : -0.66E-13 |  0.23E+00 |  -0.20E+02 |  0.13E+00 |             . |        2.384 s |        2.382 s
  SCF    7 : -0.21E-12 |  0.22E+00 |  -0.17E+02 |  0.13E+00 |             . |        2.374 s |        2.374 s
  SCF    8 : -0.24E-12 |  0.19E+00 |  -0.39E+02 |  0.28E+00 |             . |        2.371 s |        2.368 s
  SCF    9 : -0.11E-12 |  0.12E+00 |  -0.15E+02 |  0.52E-01 |             . |        2.379 s |        2.378 s
  SCF   10 : -0.13E-12 |  0.63E-01 |  -0.41E+01 | -0.75E-02 |             . |        2.360 s |        2.359 s
  SCF   11 : -0.21E-13 |  0.32E-01 |  -0.16E+02 | -0.12E-01 |             . |        2.384 s |        2.382 s
  SCF   12 : -0.20E-12 |  0.37E-01 |   0.44E+01 | -0.12E-01 |             . |        2.390 s |        2.389 s
  SCF   13 : -0.24E-12 |  0.56E-01 |  -0.18E+02 | -0.90E-01 |             . |        2.402 s |        2.400 s
  SCF   14 : -0.91E-13 |  0.15E+00 |   0.17E+02 |  0.74E-01 |             . |        2.372 s |        2.371 s
  SCF   15 : -0.28E-13 |  0.15E+00 |   0.23E+00 |  0.11E-02 |             . |        2.387 s |        2.386 s
  SCF   16 : -0.16E-12 |  0.15E+00 |  -0.17E+01 | -0.11E-01 |             . |        2.388 s |        2.387 s
  SCF   17 : -0.16E-12 |  0.16E+00 |  -0.45E+01 | -0.40E-01 |             . |        2.353 s |        2.353 s
  SCF   18 : -0.15E-12 |  0.20E+00 |  -0.12E+02 | -0.17E+00 |             . |        2.349 s |        2.348 s
  SCF   19 : -0.27E-12 |  0.32E+00 |   0.34E+01 | -0.59E-01 |             . |        2.375 s |        2.373 s
  SCF   20 : -0.11E-12 |  0.46E+00 |   0.21E+01 | -0.17E+00 |             . |        2.366 s |        2.365 s
  SCF   21 : -0.89E-13 |  0.69E+00 |  -0.25E+02 | -0.21E+01 |             . |        2.310 s |        2.309 s
  SCF   22 : -0.24E-13  WARNING: DFT+U ENERGY (E_U) IS NEGATIVE!!!
 |  0.14E+01 |  -0.26E+02 | -0.57E+01 |             . |        2.375 s |        2.375 s
  SCF   23 : -0.19E-12  WARNING: DFT+U ENERGY (E_U) IS NEGATIVE!!!
 |  0.20E+01 |   0.31E+02 |  0.17E+01 |             . |        2.369 s |        2.368 s
  SCF   24 : -0.11E-12  WARNING: DFT+U ENERGY (E_U) IS NEGATIVE!!!
 |  0.20E+01 |  -0.65E+00 |  0.68E-01 |             . |        2.385 s |        2.385 s
  SCF   25 : -0.65E-13  WARNING: DFT+U ENERGY (E_U) IS NEGATIVE!!!
 |  0.20E+01 |  -0.15E+02 | -0.12E+01 |             . |        2.307 s |        2.306 s
  SCF   26 : -0.28E-12  WARNING: DFT+U ENERGY (E_U) IS NEGATIVE!!!
 |  0.20E+01 |   0.54E+01 |  0.49E+00 |             . |        2.357 s |        2.355 s
  SCF   27 : -0.19E-12  WARNING: DFT+U ENERGY (E_U) IS NEGATIVE!!!
 |  0.20E+01 |  -0.87E+01 | -0.79E+00 |             . |        2.320 s |        2.318 s
  SCF   28 : -0.18E-12  WARNING: DFT+U ENERGY (E_U) IS NEGATIVE!!!
 |  0.20E+01 |   0.11E+02 |  0.10E+01 |             . |        2.347 s |        2.347 s
  SCF   29 : -0.14E-12  WARNING: DFT+U ENERGY (E_U) IS NEGATIVE!!!
 |  0.20E+01 |   0.31E+02 |  0.27E+01 |             . |        2.311 s |        2.309 s
  SCF   30 : -0.20E-12  WARNING: DFT+U ENERGY (E_U) IS NEGATIVE!!!
 |  0.20E+01 |  -0.91E+02 | -0.21E+01 |             . |        2.354 s |        2.353 s
  SCF   31 : -0.20E-12  WARNING: DFT+U ENERGY (E_U) IS NEGATIVE!!!
 |  0.20E+01 |   0.20E+03 |  0.22E+02 |             . |        2.379 s |        2.378 s
  SCF   32 : -0.12E-12 |  0.58E+00 |   0.66E+03 | -0.30E+02 |             . |        2.377 s |        2.376 s
  SCF   33 : -0.12E-12 |  0.85E+00 |  -0.30E+03 |  0.88E+01 |             . |        2.386 s |        2.385 s
  SCF   34 : -0.20E-12 |  0.54E+00 |  -0.15E+03 |  0.27E+01 |             . |        2.384 s |        2.383 s
  SCF   35 : -0.19E-12 |  0.43E+00 |  -0.14E+03 |  0.21E+01 |             . |        2.387 s |        2.384 s
  SCF   36 : -0.19E-12 |  0.31E+00 |  -0.14E+03 |  0.13E+01 |             . |        2.398 s |        2.396 s
  SCF   37 : -0.17E-12 |  0.60E-01 |   0.66E+02 | -0.46E+00 |             . |        2.382 s |        2.382 s
  SCF   38 : -0.97E-13 |  0.18E+00 |   0.36E+01 | -0.90E-01 |             . |        2.350 s |        2.349 s
  SCF   39 : -0.21E-12 |  0.21E+00 |  -0.13E+02 |  0.11E+00 |             . |        2.432 s |        2.431 s
  SCF   40 : -0.15E-12 |  0.19E+00 |  -0.32E+02 |  0.21E+00 |             . |        2.382 s |        2.381 s
  SCF   41 : -0.16E-12 |  0.14E+00 |  -0.10E+02 |  0.37E-01 |             . |        2.386 s |        2.385 s
  SCF   42 : -0.24E-12 |  0.11E+00 |  -0.63E+01 |  0.26E-01 |             . |        2.394 s |        2.392 s
  SCF   43 : -0.11E-12 |  0.87E-01 |  -0.15E+02 |  0.39E-01 |             . |        2.358 s |        2.358 s
  SCF   44 : -0.14E-12 |  0.38E-01 |  -0.12E+02 | -0.13E-01 |             . |        2.352 s |        2.352 s
  SCF   45 : -0.89E-13 |  0.27E-01 |   0.16E+02 | -0.28E-02 |             . |        2.333 s |        2.331 s
  SCF   46 : -0.18E-12 |  0.13E-01 |  -0.10E+02 | -0.38E-02 |             . |        2.380 s |        2.380 s
  SCF   47 : -0.10E-12 |  0.30E-01 |   0.12E+01 | -0.17E-03 |             . |        2.376 s |        2.375 s
  SCF   48 : -0.12E-12 |  0.36E-01 |  -0.34E+00 | -0.19E-02 |             . |        2.404 s |        2.402 s
  SCF   49 : -0.20E-12 |  0.43E-01 |  -0.21E+01 | -0.62E-02 |             . |        2.381 s |        2.379 s
  SCF   50 : -0.75E-13 |  0.58E-01 |   0.87E+00 |  0.45E-03 |             . |        2.384 s |        2.385 s
  SCF   51 : -0.17E-12 |  0.64E-01 |  -0.34E+00 | -0.13E-02 |             . |        2.363 s |        2.362 s
  SCF   52 : -0.97E-13 |  0.70E-01 |   0.11E+00 |  0.18E-03 |             . |        2.416 s |        2.416 s
  SCF   53 : -0.14E-12 |  0.75E-01 |  -0.86E+00 | -0.30E-02 |             . |        2.369 s |        2.368 s
  SCF   54 : -0.25E-12 |  0.81E-01 |  -0.84E-02 | -0.23E-03 |             . |        2.400 s |        2.397 s
  SCF   55 : -0.13E-12 |  0.86E-01 |  -0.36E+00 | -0.44E-03 |             . |        2.372 s |        2.370 s
  SCF   56 : -0.76E-13 |  0.90E-01 |  -0.21E+00 | -0.11E-02 |             . |        2.393 s |        2.391 s
  SCF   57 : -0.18E-12 |  0.95E-01 |  -0.54E+00 | -0.25E-02 |             . |        2.396 s |        2.394 s
  SCF   58 : -0.20E-12 |  0.10E+00 |   0.62E+00 |  0.21E-02 |             . |        2.368 s |        2.366 s
  SCF   59 : -0.11E-12 |  0.10E+00 |   0.24E+00 |  0.77E-03 |             . |        2.425 s |        2.425 s
  SCF   60 : -0.18E-12 |  0.10E+00 |   0.11E+00 |  0.19E-02 |             . |        2.362 s |        2.360 s
  SCF   61 : -0.28E-13 |  0.10E+00 |  -0.19E+01 | -0.85E-02 |             . |        2.401 s |        2.400 s
  SCF   62 : -0.23E-13 |  0.11E+00 |  -0.15E+01 | -0.85E-02 |             . |        2.395 s |        2.392 s
  SCF   63 : -0.13E-12 |  0.12E+00 |   0.34E+01 |  0.20E-01 |             . |        2.378 s |        2.378 s
  SCF   64 : -0.12E-12 |  0.12E+00 |  -0.36E+01 | -0.21E-01 |             . |        2.374 s |        2.372 s
  SCF   65 : -0.12E-12 |  0.13E+00 |  -0.45E+00 | -0.37E-02 |             . |        2.395 s |        2.395 s
  SCF   66 : -0.14E-12 |  0.14E+00 |  -0.30E-01 | -0.88E-03 |             . |        2.375 s |        2.373 s
  SCF   67 : -0.11E-12 |  0.15E+00 |  -0.58E+01 | -0.44E-01 |             . |        2.365 s |        2.365 s
  SCF   68 : -0.12E-12 |  0.19E+00 |  -0.68E+00 | -0.26E-01 |             . |        2.339 s |        2.337 s
  SCF   69 : -0.15E-12 |  0.24E+00 |  -0.15E+00 | -0.24E-01 |             . |        2.364 s |        2.364 s
  SCF   70 : -0.14E-12 |  0.30E+00 |  -0.31E+01 | -0.89E-01 |             . |        2.389 s |        2.387 s
  SCF   71 : -0.13E-12 |  0.41E+00 |  -0.43E+00 | -0.14E+00 |             . |        2.378 s |        2.376 s
  SCF   72 : -0.73E-13 |  0.59E+00 |  -0.52E+01 | -0.61E+00 |             . |        2.388 s |        2.387 s
  SCF   73 : -0.24E-12  WARNING: DFT+U ENERGY (E_U) IS NEGATIVE!!!
 |  0.99E+00 |  -0.79E+01 | -0.24E+01 |             . |        2.353 s |        2.352 s
  SCF   74 : -0.19E-12  WARNING: DFT+U ENERGY (E_U) IS NEGATIVE!!!
 |  0.17E+01 |  -0.36E+01 | -0.28E+01 |             . |        2.360 s |        2.358 s
  SCF   75 : -0.10E-12  WARNING: DFT+U ENERGY (E_U) IS NEGATIVE!!!
 |  0.20E+01 |  -0.35E+01 | -0.33E+00 |             . |        2.392 s |        2.390 s
  SCF   76 : -0.11E-12  WARNING: DFT+U ENERGY (E_U) IS NEGATIVE!!!
 |  0.20E+01 |  -0.80E+01 | -0.54E+00 |             . |        2.370 s |        2.369 s
  SCF   77 : -0.96E-13  WARNING: DFT+U ENERGY (E_U) IS NEGATIVE!!!
 |  0.20E+01 |  -0.20E+01 | -0.15E+00 |             . |        2.416 s |        2.416 s
  SCF   78 : -0.80E-13  WARNING: DFT+U ENERGY (E_U) IS NEGATIVE!!!
 |  0.20E+01 |   0.92E+00 |  0.80E-01 |             . |        2.418 s |        2.417 s
  SCF   79 : -0.16E-12  WARNING: DFT+U ENERGY (E_U) IS NEGATIVE!!!
 |  0.20E+01 |  -0.20E+01 | -0.16E+00 |             . |        2.387 s |        2.386 s
  SCF   80 : -0.86E-13  WARNING: DFT+U ENERGY (E_U) IS NEGATIVE!!!
 |  0.20E+01 |   0.64E+01 |  0.55E+00 |             . |        2.391 s |        2.391 s
  SCF   81 : -0.11E-12  WARNING: DFT+U ENERGY (E_U) IS NEGATIVE!!!
 |  0.20E+01 |   0.73E+01 |  0.63E+00 |             . |        2.447 s |        2.446 s
  SCF   82 : -0.12E-12  WARNING: DFT+U ENERGY (E_U) IS NEGATIVE!!!
 |  0.20E+01 |  -0.20E+03 | -0.12E+02 |             . |        2.440 s |        2.437 s
  SCF   83 : -0.27E-13  WARNING: DFT+U ENERGY (E_U) IS NEGATIVE!!!
 |  0.22E+01 |  -0.43E+03 | -0.39E+02 |             . |        2.403 s |        2.404 s
  SCF   84 : -0.11E-12  WARNING: DFT+U ENERGY (E_U) IS NEGATIVE!!!
 |  0.46E+01 |   0.93E+03 |  0.10E+03 |             . |        2.406 s |        2.404 s
  SCF   85 : -0.25E-12 |  0.41E+00 |   0.16E+03 | -0.51E+02 |             . |        2.384 s |        2.382 s
  SCF   86 : -0.20E-12 |  0.61E+00 |  -0.22E+02 |  0.21E+01 |             . |        2.375 s |        2.373 s
  SCF   87 : -0.55E-13 |  0.53E+00 |  -0.91E+02 |  0.19E+01 |             . |        2.375 s |        2.374 s
  SCF   88 : -0.16E-12 |  0.45E+00 |  -0.14E+03 |  0.24E+01 |             . |        2.374 s |        2.372 s
  SCF   89 : -0.19E-12 |  0.31E+00 |  -0.16E+02 |  0.23E+00 |             . |        2.440 s |        2.439 s
  SCF   90 : -0.61E-13 |  0.29E+00 |  -0.47E+02 |  0.53E+00 |             . |        2.406 s |        2.406 s
  SCF   91 : -0.22E-12 |  0.23E+00 |  -0.73E+02 |  0.54E+00 |             . |        2.425 s |        2.424 s
  SCF   92 : -0.10E-12 |  0.11E+00 |   0.19E+01 | -0.10E+00 |             . |        2.400 s |        2.399 s
  SCF   93 : -0.13E-12 |  0.11E+00 |  -0.11E+02 |  0.47E-01 |             . |        2.391 s |        2.390 s
  SCF   94 : -0.12E-12 |  0.90E-01 |  -0.28E+02 |  0.57E-01 |             . |        2.443 s |        2.442 s
  SCF   95 : -0.16E-12 |  0.82E-02 |  -0.66E+01 | -0.43E-01 |             . |        2.467 s |        2.465 s
  SCF   96 : -0.15E-12 |  0.55E-01 |   0.12E+02 |  0.81E-02 |             . |        2.396 s |        2.395 s
  SCF   97 : -0.11E-12 |  0.51E-01 |   0.68E+00 |  0.22E-02 |             . |        2.399 s |        2.399 s
  SCF   98 : -0.98E-13 |  0.51E-01 |  -0.63E+01 | -0.22E-01 |             . |        2.381 s |        2.379 s
  SCF   99 : -0.17E-12 |  0.81E-01 |  -0.11E+01 | -0.11E-01 |             . |        2.377 s |        2.376 s
  SCF  100 : -0.14E-12 |  0.11E+00 |   0.16E+01 |  0.11E-01 |             . |        2.382 s |        2.380 s
  SCF  101 : -0.28E-13 |  0.11E+00 |  -0.21E+01 | -0.13E-01 |             . |        2.372 s |        2.371 s
  SCF  102 :  0.98E-15 |  0.13E+00 |   0.15E+01 |  0.94E-02 |             . |        2.309 s |        2.308 s
  SCF  103 : -0.80E-13 |  0.14E+00 |  -0.10E+02 | -0.91E-01 |             . |        2.384 s |        2.383 s
  SCF  104 : -0.16E-12 |  0.21E+00 |  -0.27E+01 | -0.67E-01 |             . |        2.392 s |        2.390 s
  SCF  105 : -0.15E-12 |  0.29E+00 |   0.13E+02 |  0.14E+00 |             . |        2.373 s |        2.372 s
  SCF  106 : -0.10E-12 |  0.31E+00 |   0.18E+02 |  0.23E+00 |             . |        2.350 s |        2.347 s
  SCF  107 : -0.15E-12 |  0.22E+00 |  -0.16E+02 | -0.20E+00 |             . |        2.392 s |        2.390 s
  SCF  108 : -0.17E-12 |  0.24E+00 |  -0.57E+01 | -0.57E-01 |             . |        2.345 s |        2.344 s
  SCF  109 : -0.10E-12 |  0.28E+00 |  -0.18E+01 | -0.32E-01 |             . |        2.381 s |        2.379 s
  SCF  110 : -0.59E-14 |  0.33E+00 |  -0.72E+01 | -0.16E+00 |             . |        2.341 s |        2.340 s
  SCF  111 : -0.52E-13 |  0.47E+00 |   0.15E+02 |  0.19E+00 |             . |        2.358 s |        2.357 s
  SCF  112 : -0.19E-12 |  0.56E+00 |   0.36E+00 | -0.11E+00 |             . |        2.357 s |        2.355 s
  SCF  113 : -0.15E-12 |  0.76E+00 |  -0.11E+02 | -0.11E+01 |             . |        2.349 s |        2.347 s
  SCF  114 : -0.16E-12  WARNING: DFT+U ENERGY (E_U) IS NEGATIVE!!!
 |  0.13E+01 |  -0.77E+01 | -0.28E+01 |             . |        2.376 s |        2.374 s
  SCF  115 : -0.13E-12  WARNING: DFT+U ENERGY (E_U) IS NEGATIVE!!!
 |  0.18E+01 |  -0.11E+02 | -0.20E+01 |             . |        2.373 s |        2.373 s
  SCF  116 : -0.17E-12  WARNING: DFT+U ENERGY (E_U) IS NEGATIVE!!!
 |  0.20E+01 |  -0.90E+01 | -0.63E+00 |             . |        2.347 s |        2.346 s
  SCF  117 : -0.14E-12  WARNING: DFT+U ENERGY (E_U) IS NEGATIVE!!!
 |  0.20E+01 |  -0.25E+00 |  0.75E-02 |             . |        2.398 s |        2.395 s
  SCF  118 : -0.17E-12  WARNING: DFT+U ENERGY (E_U) IS NEGATIVE!!!
 |  0.20E+01 |   0.50E+01 |  0.41E+00 |             . |        2.334 s |        2.334 s
  SCF  119 : -0.18E-12  WARNING: DFT+U ENERGY (E_U) IS NEGATIVE!!!
 |  0.20E+01 |  -0.24E+01 | -0.25E+00 |             . |        2.403 s |        2.402 s
  SCF  120 : -0.11E-12  WARNING: DFT+U ENERGY (E_U) IS NEGATIVE!!!
 |  0.20E+01 |   0.77E+01 |  0.63E+00 |             . |        2.393 s |        2.392 s
  SCF  121 : -0.18E-12  WARNING: DFT+U ENERGY (E_U) IS NEGATIVE!!!
 |  0.20E+01 |   0.14E+02 |  0.17E+01 |             . |        2.392 s |        2.390 s
  SCF  122 : -0.12E-12  WARNING: DFT+U ENERGY (E_U) IS NEGATIVE!!!
 |  0.20E+01 |   0.64E+01 |  0.50E+00 |             . |        2.692 s |        2.690 s
  SCF  123 : -0.11E-12  WARNING: DFT+U ENERGY (E_U) IS NEGATIVE!!!
 |  0.20E+01 |  -0.23E+03 | -0.10E+02 |             . |        3.322 s |        3.321 s
  SCF  124 : -0.12E-12  WARNING: DFT+U ENERGY (E_U) IS NEGATIVE!!!
 |  0.22E+01 |   0.64E+02 |  0.11E+02 |             . |        2.399 s |        2.398 s
  SCF  125 : -0.13E-12  WARNING: DFT+U ENERGY (E_U) IS NEGATIVE!!!
 |  0.21E+01 |   0.93E+03 | -0.37E+00 |             . |        2.363 s |        2.361 s
  SCF  126 : -0.15E-12 |  0.10E+01 |  -0.78E+02 | -0.13E+02 |             . |        2.359 s |        2.358 s
  SCF  127 : -0.75E-13 |  0.78E+00 |  -0.76E+02 |  0.41E+01 |             . |        2.362 s |        2.362 s
  SCF  128 : -0.94E-13 |  0.70E+00 |  -0.16E+03 |  0.56E+01 |             . |        2.391 s |        2.388 s
  SCF  129 : -0.21E-12 |  0.56E+00 |  -0.84E+02 |  0.21E+01 |             . |        2.387 s |        2.384 s
  SCF  130 : -0.12E-12 |  0.49E+00 |  -0.14E+03 |  0.29E+01 |             . |        2.375 s |        2.373 s
  SCF  131 : -0.13E-12 |  0.36E+00 |  -0.78E+02 |  0.10E+01 |             . |        2.369 s |        2.367 s
  SCF  132 : -0.16E-12 |  0.28E+00 |  -0.85E+02 |  0.81E+00 |             . |        2.398 s |        2.396 s
  SCF  133 : -0.11E-12 |  0.15E+00 |  -0.86E+01 | -0.50E-01 |             . |        2.371 s |        2.371 s
  SCF  134 : -0.11E-13 |  0.14E+00 |  -0.39E+01 | -0.35E-01 |             . |        2.375 s |        2.373 s
  SCF  135 : -0.15E-12 |  0.15E+00 |   0.15E+02 | -0.15E+00 |             . |        2.401 s |        2.400 s
  SCF  136 : -0.15E-12 |  0.18E+00 |  -0.43E+02 |  0.31E+00 |             . |        2.378 s |        2.378 s
  SCF  137 : -0.10E-12 |  0.97E-01 |   0.14E+01 | -0.22E-01 |             . |        2.389 s |        2.387 s
  SCF  138 : -0.16E-12 |  0.79E-01 |   0.42E+00 | -0.47E-02 |             . |        2.373 s |        2.372 s
  SCF  139 : -0.13E-12 |  0.74E-01 |  -0.38E+02 |  0.20E-01 |             . |        2.396 s |        2.395 s
  SCF  140 : -0.15E-12 |  0.59E-01 |   0.28E+02 |  0.19E-02 |             . |        2.381 s |        2.381 s
  SCF  141 : -0.10E-12 |  0.29E-01 |   0.28E+01 |  0.27E-02 |             . |        2.439 s |        2.436 s
  SCF  142 : -0.14E-12 |  0.82E-02 |   0.76E+00 | -0.38E-02 |             . |        2.374 s |        2.372 s
  SCF  143 : -0.19E-12 |  0.16E-01 |   0.11E+01 | -0.28E-02 |             . |        2.350 s |        2.349 s
  SCF  144 : -0.11E-12 |  0.25E-01 |  -0.97E+00 |  0.11E-02 |             . |        2.352 s |        2.352 s
  SCF  145 : -0.90E-13 |  0.25E-01 |   0.15E+00 | -0.10E-04 |             . |        2.385 s |        2.383 s
  SCF  146 : -0.16E-12 |  0.26E-01 |  -0.16E+01 |  0.18E-02 |             . |        2.359 s |        2.358 s
  SCF  147 : -0.27E-12 |  0.21E-01 |   0.38E+01 | -0.46E-02 |             . |        2.392 s |        2.390 s
  SCF  148 : -0.16E-12 |  0.31E-01 |  -0.65E+01 |  0.72E-02 |             . |        2.388 s |        2.387 s
  SCF  149 : -0.11E-12 |  0.14E-01 |   0.54E+01 | -0.53E-02 |             . |        2.406 s |        2.404 s
  SCF  150 : -0.13E-12 |  0.25E-01 |  -0.75E+01 |  0.55E-02 |             . |        2.378 s |        2.376 s
  SCF  151 : -0.20E-12 |  0.37E-02 |  -0.55E+00 | -0.20E-02 |             . |        2.391 s |        2.389 s
  SCF  152 : -0.19E-12 |  0.69E-02 |   0.33E+01 |  0.17E-03 |             . |        2.379 s |        2.377 s
  SCF  153 : -0.76E-13 |  0.11E-02 |   0.27E+00 | -0.85E-04 |             . |        2.350 s |        2.351 s
  SCF  154 : -0.15E-12 |  0.20E-02 |  -0.22E+00 | -0.23E-04 |             . |        2.320 s |        2.319 s
  SCF  155 : -0.12E-12 |  0.26E-02 |  -0.98E+00 |  0.76E-04 |             . |        2.376 s |        2.374 s
  SCF  156 : -0.13E-12 |  0.42E-03 |   0.11E+00 | -0.32E-04 |             . |        2.399 s |        2.397 s
  SCF  157 : -0.25E-12 |  0.13E-02 |   0.16E+00 |  0.90E-06 |             . |        2.395 s |        2.393 s
  SCF  158 : -0.14E-12 |  0.13E-02 |  -0.21E-01 | -0.11E-05 |             . |        2.378 s |        2.376 s
  SCF  159 : -0.84E-13 |  0.14E-02 |   0.26E+00 |  0.65E-05 |             . |        2.379 s |        2.378 s
  SCF  160 : -0.15E-12 |  0.56E-03 |   0.92E-01 | -0.50E-05 |             . |        2.377 s |        2.375 s
  SCF  161 : -0.15E-12 |  0.14E-03 |  -0.55E-01 | -0.65E-06 |             . |        2.392 s |        2.390 s
  SCF  162 : -0.21E-12 |  0.30E-03 |  -0.65E-01 |  0.15E-05 |             . |        2.389 s |        2.387 s
  SCF  163 : -0.96E-13 |  0.18E-03 |  -0.13E-01 |  0.64E-06 |             . |        2.388 s |        2.385 s
  SCF  164 : -0.65E-13 |  0.11E-03 |  -0.90E-02 |  0.19E-06 |             . |        2.356 s |        2.356 s
  SCF  165 : -0.10E-12 |  0.38E-04 |  -0.71E-02 |  0.99E-07 |             . |        2.387 s |        2.387 s
  SCF  166 : -0.79E-13 |  0.24E-04 |   0.44E-02 | -0.13E-06 |             . |        2.547 s |        2.545 s
  SCF  167 : -0.13E-12 |  0.40E-04 |   0.50E-02 | -0.93E-07 |             . |        2.372 s |        2.372 s
  SCF  168 : -0.13E-12 |  0.34E-04 |   0.75E-02 | -0.16E-06 |             . |        2.374 s |        2.373 s
  SCF  169 : -0.18E-12 |  0.57E-05 |   0.38E-03 | -0.94E-08 |             . |        2.381 s |        2.381 s
  SCF  170 : -0.15E-12 |  0.82E-05 |  -0.53E-03 |  0.11E-07 |             . |        2.352 s |        2.351 s
  SCF  171 : -0.63E-13 |  0.14E-04 |  -0.23E-02 |  0.52E-07 |             . |        2.379 s |        2.379 s
  SCF  172 : -0.15E-12 |  0.96E-05 |  -0.70E-03 |  0.15E-07 |             . |        2.418 s |        2.416 s
  SCF  173 : -0.25E-12 |  0.56E-05 |  -0.45E-03 |  0.94E-08 |             . |        2.373 s |        2.371 s
  SCF  174 : -0.17E-12 |  0.20E-05 |  -0.30E-03 |  0.63E-08 |             . |        2.367 s |        2.365 s
  SCF  175 : -0.78E-13 |  0.91E-06 |   0.12E-03 | -0.29E-08 |             . |        2.382 s |        2.381 s
  SCF  176 : -0.23E-12 |  0.20E-05 |   0.18E-03 | -0.40E-08 |      0.70E-09  Writing plus_u occupation matrix for occupation matrix control

 |        1.381 s |        1.384 s

  Total energy components:
  | Sum of eigenvalues            :       -5746.70412095 Ha     -156375.77544283 eV
  | XC energy correction          :        -224.14228395 Ha       -6099.22187126 eV
  | XC potential correction       :         294.56130816 Ha        8015.42101527 eV
  | Free-atom electrostatic energy:       -3499.96182494 Ha      -95238.80695366 eV
  | Hartree energy correction     :           6.52972111 Ha         177.68275168 eV
  | DFT+U energy correction       :           0.01435012 Ha           0.39048666 eV
  | Entropy correction            :           0.00000000 Ha           0.00000000 eV
  | ---------------------------
  | Total energy                  :       -9169.70285044 Ha     -249520.31001414 eV
  | Total energy, T -> 0          :       -9169.70285044 Ha     -249520.31001414 eV  <-- do not rely on this value for anything but (periodic) metals
  | Electronic free energy        :       -9169.70285044 Ha     -249520.31001414 eV

  Derived energy quantities:
  | Kinetic energy                :        9717.63557483 Ha      264430.31805750 eV
  | Electrostatic energy          :      -18663.21049144 Ha     -507851.79668704 eV
  | Energy correction for multipole
  | error in Hartree potential    :           0.01384092 Ha           0.37663062 eV
  | Sum of eigenvalues per atom                           :      -52125.25848094 eV
  | Total energy (T->0) per atom                          :      -83173.43667138 eV  <-- do not rely on this value for anything but (periodic) metals
  | Electronic free energy per atom                       :      -83173.43667138 eV
  Highest occupied state (VBM) at     -9.66135994 eV (relative to internal zero)
  | Occupation number:      2.00000000
  | K-point:       1 at    0.000000    0.000000    0.000000 (in units of recip. lattice)

  Lowest unoccupied state (CBM) at    -6.38072338 eV (relative to internal zero)
  | Occupation number:      0.00000000
  | K-point:       1 at    0.000000    0.000000    0.000000 (in units of recip. lattice)

  ESTIMATED overall HOMO-LUMO gap:      3.28063656 eV between HOMO at k-point 1 and LUMO at k-point 1
  The gap value is above 0.2 eV. Unless you are using a very sparse k-point grid,
  this system is most likely an insulator or a semiconductor.

  Self-consistency cycle converged.

  Removing unitary transformations (pure translations, rotations) from forces on atoms.
  Atomic forces before filtering:
  | Net force on center of mass :   0.624148E-11 -0.497365E-09  0.692696E-09 eV/A
  Atomic forces after filtering:
  | Net force on center of mass :   0.415384E-25  0.830768E-25 -0.290769E-24 eV/A

  Energy and forces in a compact form:
  | Total energy uncorrected      :         -0.249520310014138E+06 eV
  | Total energy corrected        :         -0.249520310014138E+06 eV  <-- do not rely on this value for anything but (periodic) metals
  | Electronic free energy        :         -0.249520310014138E+06 eV
  Total atomic forces (unitary forces cleaned) [eV/Ang]:
  |    1         -0.930003225123564E-10         -0.443519899814311E-09          0.408502289297625E-09
  |    2         -0.251550912736586E-09         -0.814481467323780E-10         -0.595061335273653E-09
  |    3          0.344551235248942E-09          0.524968046546689E-09          0.186559045976027E-09


------------------------------------------------------------------------------
  Final output of selected total energy values:

  The following output summarizes some interesting total energy values
  at the end of a run (AFTER all relaxation, molecular dynamics, etc.).

  | Total energy of the DFT / Hartree-Fock s.c.f. calculation      :        -249520.310014138 eV
  | Final zero-broadening corrected energy (caution - metals only) :        -249520.310014138 eV
  | For reference only, the value of 1 Hartree used in FHI-aims is :             27.211384500 eV
  | For reference only, the overall average (free atom contribution
  | + realspace contribution) of the electrostatic potential after
  | s.c.f. convergence is                                          :            -19.250573234 eV

  Before relying on these values, please be sure to understand exactly which
  total energy value is referred to by a given number. Different objects may
  all carry the same name 'total energy'. Definitions:

  Total energy of the DFT / Hartree-Fock s.c.f. calculation:
  | Note that this energy does not include ANY quantities calculated after the
  | s.c.f. cycle, in particular not ANY RPA, MP2, etc. many-body perturbation terms.

  Final zero-broadening corrected energy:
  | For metallic systems only, a broadening of the occupation numbers at the Fermi
  | level can be extrapolated back to zero broadening by an electron-gas inspired
  | formula. For all systems that are not real metals, this value can be
  | meaningless and should be avoided.

------------------------------------------------------------------------------
  Methods described in the following list of references were used in this FHI-aims run.
  If you publish the results, please make sure to cite these reference if they apply.
  FHI-aims is an academic code, and for our developers (often, Ph.D. students
  and postdocs), scientific credit in the community is essential.
  Thank you for helping us!

  For any use of FHI-aims, please cite:

    Volker Blum, Ralf Gehrke, Felix Hanke, Paula Havu, Ville Havu,
    Xinguo Ren, Karsten Reuter, and Matthias Scheffler
    'Ab initio molecular simulations with numeric atom-centered orbitals'
    Computer Physics Communications 180, 2175-2196 (2009)
    http://dx.doi.org/10.1016/j.cpc.2009.06.022


  For the parametric geometry constraints, please cite:

    Maja-Olivia Lenz, Thomas A. R. Purcell, David Hicks,
    Stefano Curtarolo, Matthias Scheffler, Christian Carbogno
    'Parametrically constrained geometry relaxations for high-throughput materials science'
    npj Computational Materials 5, 123 (2019).
    http://dx.doi.org/10.1038/s41524-019-0254-4


  The provided symmetry information was generated with SPGlib:

    Atsushi Togo, Yusuke Seto, Dimitar Pashov
    SPGlib 1.7.3 obtained from http://spglib.sourceforge.net
    Copyright (C) 2008 Atsushi Togo


 DFT+U infrastructure was used in your run
 please cite:

 Matthias Kick, Karsten Reuter and Harald Oberhofer,
 Intricacies Of DFT+U, not only in a Numeric Atom Centered Orbital Framework

 Journal of Chemical Theory and Computation
 https://


  The ELSI infrastructure was used in your run to solve the Kohn-Sham electronic structure.
  Please check out http://elsi-interchange.org to learn more.
  If scalability is important for your project, please acknowledge ELSI by citing:

    V. W-z. Yu, F. Corsetti, A. Garcia, W. P. Huhn, M. Jacquelin, W. Jia,
    B. Lange, L. Lin, J. Lu, W. Mi, A. Seifitokaldani, A. Vazquez-Mayagoitia,
    C. Yang, H. Yang, and V. Blum
    'ELSI: A unified software interface for Kohn-Sham electronic structure solvers'
    Computer Physics Communications 222, 267-285 (2018).
    http://dx.doi.org/10.1016/j.cpc.2017.09.007


  For the real-space grid partitioning and parallelization used in this calculation, please cite:

    Ville Havu, Volker Blum, Paula Havu, and Matthias Scheffler,
    'Efficient O(N) integration for all-electron electronic structure calculation'
    'using numerically tabulated basis functions'
    Journal of Computational Physics 228, 8367-8379 (2009).
    http://dx.doi.org/10.1016/j.jcp.2009.08.008

  Of course, there are many other important community references, e.g., those cited in the
  above references. Our list is limited to references that describe implementations in the
  FHI-aims code. The reason is purely practical (length of this list) - please credit others as well.

 * A warning was issued further up regarding the accuracy of onsite integrals.
   An integral with a negative eigenvalue was among the flagged integrals.
   In most standard situations, this warning is probably harmless.
   If needed, this can be verified by adjusting the radial_multiplier flag.

   One or more s.c.f. cycles took more than 50 s.c.f. iterations.
   It might be worth adjusting your convergence settings. For example,
   metals need a larger broadening and a smaller "charge_mix_param" value than semiconductors.

------------------------------------------------------------
          Leaving FHI-aims.
          Date     :  20221014, Time     :  204734.007

          Computational steps:
          | Number of self-consistency cycles          :          176
          | Number of SCF (re)initializations          :            1

          Detailed time accounting                     :  max(cpu_time)    wall_clock(cpu1)
          | Total time                                 :      422.513 s         423.569 s
          | Preparation time                           :        0.333 s           0.334 s
          | Boundary condition initalization           :        0.069 s           0.070 s
          | Grid partitioning                          :        0.059 s           0.060 s
          | Preloading free-atom quantities on grid    :        0.223 s           0.223 s
          | Free-atom superposition energy             :        0.026 s           0.026 s
          | Total time for integrations                :      109.444 s         109.441 s
          | Total time for solution of K.-S. equations :        0.417 s           0.420 s
          | Total time for density & force components  :      238.423 s         238.413 s
          | Total time for mixing & preconditioning    :       21.526 s          21.289 s
          | Total time for Hartree multipole update    :        0.188 s           0.192 s
          | Total time for Hartree multipole sum       :       51.600 s          51.600 s
          | Total time for total energy evaluation     :        0.015 s           0.015 s
          | Total time for scaled ZORA corrections     :        0.000 s           0.000 s

          Partial memory accounting:
          | Residual value for overall tracked memory usage across tasks:     0.000000 MB (should be 0.000000 MB)
          | Peak values for overall tracked memory usage:
          |   Minimum:       14.540 MB (on task 5 after allocating gradient_basis_wave)
          |   Maximum:       15.425 MB (on task 0 after allocating gradient_basis_wave)
          |   Average:       14.987 MB
          | Largest tracked array allocation:
          |   Minimum:        6.670 MB (hamiltonian_shell on task 5)
          |   Maximum:        7.312 MB (hamiltonian_shell on task 0)
          |   Average:        6.995 MB
          Note:  These values currently only include a subset of arrays which are explicitly tracked.
          The "true" memory usage will be greater.

          Have a nice day.
------------------------------------------------------------
