 argument  1 = input.nw



============================== echo of input deck ==============================
echo
title "total energy of s2-dimer LDA/30Ry with PSPW method"
scratch_dir   ./scratch
permanent_dir ./perm
start s2-pspw-energy
geometry
S 0.0 0.0 0.0
S 0.0 0.0 1.88
end
nwpw
    simulation_cell
        SC 20.0
    end
    cutoff 15.0
    mult 3
    xc lda
    lmbfgs
end
task pspw energy
================================================================================


                                         
                                         


              Northwest Computational Chemistry Package (NWChem) 6.6
              ------------------------------------------------------


                    Environmental Molecular Sciences Laboratory
                       Pacific Northwest National Laboratory
                                Richland, WA 99352

                              Copyright (c) 1994-2015
                       Pacific Northwest National Laboratory
                            Battelle Memorial Institute

             NWChem is an open-source computational chemistry package
                        distributed under the terms of the
                      Educational Community License (ECL) 2.0
             A copy of the license is included with this distribution
                              in the LICENSE.TXT file

                                  ACKNOWLEDGMENT
                                  --------------

            This software and its documentation were developed at the
            EMSL at Pacific Northwest National Laboratory, a multiprogram
            national laboratory, operated for the U.S. Department of Energy
            by Battelle under Contract Number DE-AC05-76RL01830. Support
            for this work was provided by the Department of Energy Office
            of Biological and Environmental Research, Office of Basic
            Energy Sciences, and the Office of Advanced Scientific Computing.


           Job information
           ---------------

    hostname        = lenovo700
    program         = nwchem
    date            = Thu Sep 22 08:48:53 2016

    compiled        = Mon_Feb_15_08:24:17_2016
    source          = /build/nwchem-MF0R1k/nwchem-6.6+r27746
    nwchem branch   = 6.6
    nwchem revision = 27746
    ga revision     = 10594
    input           = input.nw
    prefix          = s2-pspw-energy.
    data base       = ./perm/s2-pspw-energy.db
    status          = startup
    nproc           =        1
    time left       =     -1s



           Memory information
           ------------------

    heap     =   13107200 doubles =    100.0 Mbytes
    stack    =   13107197 doubles =    100.0 Mbytes
    global   =   26214400 doubles =    200.0 Mbytes (distinct from heap & stack)
    total    =   52428797 doubles =    400.0 Mbytes
    verify   = yes
    hardfail = no 


           Directory information
           ---------------------

  0 permanent = ./perm
  0 scratch   = ./scratch




                                NWChem Input Module
                                -------------------


                total energy of s2-dimer LDA/30Ry with PSPW method
                --------------------------------------------------

 Scaling coordinates for geometry "geometry" by  1.889725989
 (inverse scale =  0.529177249)

 ORDER OF PRIMARY AXIS IS BEING SET TO 4
 D4H symmetry detected

          ------
          auto-z
          ------


                             Geometry "geometry" -> ""
                             -------------------------

 Output coordinates in angstroms (scale by  1.889725989 to convert to a.u.)

  No.       Tag          Charge          X              Y              Z
 ---- ---------------- ---------- -------------- -------------- --------------
    1 S                   16.0000     0.00000000     0.00000000    -0.94000000
    2 S                   16.0000     0.00000000     0.00000000     0.94000000

      Atomic Mass 
      ----------- 

      S                 31.972070


 Effective nuclear repulsion energy (a.u.)      72.0581785872

            Nuclear Dipole moment (a.u.) 
            ----------------------------
        X                 Y               Z
 ---------------- ---------------- ----------------
     0.0000000000     0.0000000000     0.0000000000

      Symmetry information
      --------------------

 Group name             D4h       
 Group number             28
 Group order              16
 No. of unique centers     1

      Symmetry unique atoms

     1



                                Z-matrix (autoz)
                                -------- 

 Units are Angstrom for bonds and degrees for angles

      Type          Name      I     J     K     L     M      Value
      ----------- --------  ----- ----- ----- ----- ----- ----------
    1 Stretch                  1     2                       1.88000


            XYZ format geometry
            -------------------
     2
 geometry
 S                     0.00000000     0.00000000    -0.94000000
 S                     0.00000000     0.00000000     0.94000000

 ==============================================================================
                                internuclear distances
 ------------------------------------------------------------------------------
       center one      |      center two      | atomic units |  angstroms
 ------------------------------------------------------------------------------
    2 S                |   1 S                |     3.55268  |     1.88000
 ------------------------------------------------------------------------------
                         number of included internuclear distances:          1
 ==============================================================================



          ****************************************************
          *                                                  *
          *               NWPW PSPW Calculation              *
          *                                                  *
          * [ (Grassmann/Stiefel manifold implementation)  ] *
          *                                                  *
          *      [ NorthWest Chemistry implementation ]      *
          *                                                  *
          *            version #5.10   06/12/02              *
          *                                                  *
          *    This code was developed by Eric J. Bylaska,   *
          *    and was based upon algorithms and code        *
          *    developed by the group of Prof. John H. Weare *
          *                                                  *
          ****************************************************
     >>>  JOB STARTED       AT Thu Sep 22 08:48:53 2016  <<<
          ================ input data ========================
  library name resolved from: .nwchemrc
  NWCHEM_NWPW_LIBRARY set to: </home/lauri/nwchem-6.6/src/nwpw/libraryps/>
 Generating 1d pseudopotential for S   

 Generated formatted_filename: ./perm/S.vpp
 random planewave guess, initial psi:s2-pspw-energy.movecs                             
 -   spin, nalpha, nbeta:                    2                    7                    5

 input psi filename:./perm/s2-pspw-energy.movecs
 Warning - Gram-Schmidt being performed on psi:   12.000000000000000        7.9074941651637483        11.999999999999966        4.0925058348362517     

 number of processors used:         1
 processor grid           :   1 x   1
 parallel mapping         :2d hilbert
 parallel mapping         :  balanced
 number of threads        :         1
 parallel io              :       off

 options:
      boundary conditions  = periodic    (version3)
      electron spin        = unrestricted
      exchange-correlation = LDA (Vosko et al) parameterization

 elements involved in the cluster:
      1: S   valence charge:  6.0000  lmax=  2
             comment    : Hamann pseudopotential
             pseudpotential type            :   0
             highest angular component      :   2
             local potential used           :   2
             number of non-local projections:   4
             cutoff =   0.843   0.955   0.955


 total charge:   0.000

 atomic composition:
     S   :    2

 number of electrons: spin up=     7 (   7 per task)  down=     5 (   5 per task) (Fourier space)
 number of orbitals : spin up=     7 (   7 per task)  down=     5 (   5 per task) (Fourier space)

 supercell:
      cell_name:  cell_default                                      
      lattice:    a1=<  20.000   0.000   0.000 >
                  a2=<   0.000  20.000   0.000 >
                  a3=<   0.000   0.000  20.000 >
      reciprocal: b1=<   0.314   0.000   0.000 >
                  b2=<   0.000   0.314   0.000 >
                  b3=<   0.000   0.000   0.314 >
      lattice:    a=      20.000 b=     20.000 c=      20.000
                  alpha=  90.000 beta=  90.000 gamma=  90.000
                  omega=      8000.0

      density cutoff= 15.000  fft= 36x 36x 36(    11060 waves    11060 per task)
      wavefnc cutoff=  7.500  fft= 36x 36x 36(     3905 waves     3905 per task)
      Ewald summation: cut radius=    6.37  and  1
                       Madelung Wigner-Seitz= 1.76011888 (alpha= 2.83729748 rs=12.40700982)

 technical parameters:
      time step=      5.80     ficticious mass=  400000.0
      tolerance=0.100E-06 (energy)   0.100E-06 (density)
      maximum iterations =      1000 (   10 inner    100 outer )





== Energy Calculation ==


          ============ Grassmann lmbfgs iteration ============
     >>>  ITERATION STARTED AT Thu Sep 22 08:48:55 2016  <<<
    iter.           Energy         DeltaE       DeltaRho 
    ------------------------------------------------------
     -  15 steepest descent iterations performed
      10   -0.1995729137E+02   -0.92603E-01    0.99237E+00
     -  10 steepest descent iterations performed
      20   -0.2032854576E+02   -0.51796E-02    0.16201E-01
      30   -0.2033709470E+02   -0.70211E-04    0.12821E-03
      40   -0.2033722532E+02   -0.12138E-05    0.19371E-05
      50   -0.2033722736E+02   -0.91327E-07    0.19252E-07
  *** tolerance ok. iteration terminated
     >>>  ITERATION ENDED   AT Thu Sep 22 08:49:00 2016  <<<


==  Summary Of Results  ==

 number of electrons: spin up=    7.00000  down=    5.00000 (real space)

 total     energy    :  -0.2033722736E+02 (   -0.10169E+02/ion)
 total orbital energy:  -0.4928106899E+01 (   -0.41068E+00/electron)
 hartree   energy    :   0.1677581762E+02 (    0.13980E+01/electron)
 exc-corr  energy    :  -0.4307005383E+01 (   -0.35892E+00/electron)
 ion-ion   energy    :   0.4347470065E-01 (    0.21737E-01/ion)

 kinetic (planewave) :   0.7388808145E+01 (    0.61573E+00/electron)
 V_local (planewave) :  -0.4501762546E+02 (   -0.37515E+01/electron)
 V_nl    (planewave) :   0.4779303017E+01 (    0.39828E+00/electron)
 V_Coul  (planewave) :   0.3355163524E+02 (    0.27960E+01/electron)
 V_xc.   (planewave) :  -0.5630227841E+01 (   -0.46919E+00/electron)
 Virial Coefficient  :  -0.1666969125E+01

 orbital energies:
    -0.2010904E+00 (  -5.472eV)
    -0.2010907E+00 (  -5.472eV)
    -0.3329901E+00 (  -9.061eV)    -0.3023849E+00 (  -8.228eV)
    -0.3329903E+00 (  -9.061eV)    -0.3023851E+00 (  -8.228eV)
    -0.3587880E+00 (  -9.763eV)    -0.3357434E+00 (  -9.136eV)
    -0.5517108E+00 ( -15.013eV)    -0.5136966E+00 ( -13.979eV)
    -0.7590397E+00 ( -20.655eV)    -0.7361969E+00 ( -20.033eV)

 Total PSPW energy     :  -0.2033722736E+02


=== Spin Contamination ===

 <Sexact^2> =    2.0000000000000000     
 <S^2>      =    2.0027822548775340     



== Center of Charge ==

spin up     (    0.0000,   -0.0000,    0.0000 )
spin down   (   -0.0000,    0.0000,   -0.0000 )
     total  (    0.0000,    0.0000,    0.0000 )
ionic       (    0.0000,    0.0000,    0.0000 )
crystal     (    0.0000,    0.0000,   -0.0000 )


== Crystal Dipole ==

mu   =  (   -0.0000,   -0.0000,   -0.0001 ) au
|mu| =     0.0001 au,       0.0003 Debye


== Molecular Dipole wrt Center of Mass ==

mu   =  (   -0.0000,   -0.0000,   -0.0001 ) au
|mu| =     0.0001 au,       0.0003 Debye

 output psi filename:./perm/s2-pspw-energy.movecs


== Timing ==

cputime in seconds
  prologue    :   0.240955E+01
  main loop   :   0.509009E+01
  epilogue    :   0.848699E-02
  total       :   0.750813E+01
  cputime/step:   0.400795E-01       (     127 evalulations,      46 linesearches)


Time spent doing                        total          step       percent
  total time                 :   0.750847E+01  0.591218E-01       100.0 %
  i/o time                   :   0.229253E+01  0.180515E-01        30.5 %
  FFTs                       :   0.207814E+00  0.163633E-02         2.8 %
  dot products               :   0.233923E+00  0.184191E-02         3.1 %
  geodesic                   :   0.311263E+00  0.245089E-02         4.1 %
  ffm_dgemm                  :   0.908784E-01  0.715578E-03         1.2 %
  fmf_dgemm                  :   0.204648E+00  0.161140E-02         2.7 %
  m_diagonalize              :   0.426002E-02  0.335435E-04         0.1 %
  exchange correlation       :   0.187728E+01  0.147817E-01        25.0 %
  local pseudopotentials     :   0.374079E-03  0.294550E-05         0.0 %
  non-local pseudopotentials :   0.128587E+00  0.101249E-02         1.7 %
  hartree potentials         :   0.133843E-01  0.105388E-03         0.2 %
  ion-ion interaction        :   0.805140E-03  0.633968E-05         0.0 %
  structure factors          :   0.703539E-02  0.553968E-04         0.1 %
  phase factors              :   0.240793E-04  0.189601E-06         0.0 %
  masking and packing        :   0.236457E+00  0.186187E-02         3.1 %
  queue fft                  :   0.202347E+01  0.159329E-01        26.9 %
  queue fft (serial)         :   0.123700E+01  0.974016E-02        16.5 %
  queue fft (message passing):   0.731232E+00  0.575774E-02         9.7 %

     >>>  JOB COMPLETED     AT Thu Sep 22 08:49:00 2016  <<<
          ****************************************************
          *                                                  *
          *               NWPW PSPW Calculation              *
          *                                                  *
          * [ (Grassmann/Stiefel manifold implementation)  ] *
          *                                                  *
          *      [ NorthWest Chemistry implementation ]      *
          *                                                  *
          *            version #5.10   06/12/02              *
          *                                                  *
          *    This code was developed by Eric J. Bylaska,   *
          *    and was based upon algorithms and code        *
          *    developed by the group of Prof. John H. Weare *
          *                                                  *
          ****************************************************
     >>>  JOB STARTED       AT Thu Sep 22 08:49:00 2016  <<<
          ================ input data ========================
 pseudopotential is not correctly formatted:S.vpp                                             

 Generated formatted_filename: ./perm/S.vpp
 Error reading psi - bad grid
 nfft :                   36                   36                   36
 ngrid:                   50                   50                   50
 Error reading psi - bad grid
 nfft :                   36                   36                   36
 ngrid:                   50                   50                   50
 Error reading psi - bad grid

 Grid is being converted:
 ------------------------

 To turn off automatic grid conversion:

 set nwpw:psi_nogrid .false.

 old_filename: s2-pspw-energy.movecs                             
 new_filename: s2-pspw-energy.movecs                             
 converting  :  36x 36x 36 -->  50x 50x 50
converting .... psi:    1 spin: 1
converting .... psi:    2 spin: 1
converting .... psi:    3 spin: 1
converting .... psi:    4 spin: 1
converting .... psi:    5 spin: 1
converting .... psi:    6 spin: 1
converting .... psi:    7 spin: 1
converting .... psi:    1 spin: 2
converting .... psi:    2 spin: 2
converting .... psi:    3 spin: 2
converting .... psi:    4 spin: 2
converting .... psi:    5 spin: 2

 input psi filename:./perm/s2-pspw-energy.movecs

 number of processors used:         1
 processor grid           :   1 x   1
 parallel mapping         :2d hilbert
 parallel mapping         :  balanced
 number of threads        :         1
 parallel io              :       off

 options:
      boundary conditions  = periodic    (version3)
      electron spin        = unrestricted
      exchange-correlation = LDA (Vosko et al) parameterization

 elements involved in the cluster:
      1: S   valence charge:  6.0000  lmax=  2
             comment    : Hamann pseudopotential
             pseudpotential type            :   0
             highest angular component      :   2
             local potential used           :   2
             number of non-local projections:   4
             cutoff =   0.843   0.955   0.955


 total charge:   0.000

 atomic composition:
     S   :    2

 number of electrons: spin up=     7 (   7 per task)  down=     5 (   5 per task) (Fourier space)
 number of orbitals : spin up=     7 (   7 per task)  down=     5 (   5 per task) (Fourier space)

 supercell:
      cell_name:  cell_default                                      
      lattice:    a1=<  20.000   0.000   0.000 >
                  a2=<   0.000  20.000   0.000 >
                  a3=<   0.000   0.000  20.000 >
      reciprocal: b1=<   0.314   0.000   0.000 >
                  b2=<   0.000   0.314   0.000 >
                  b3=<   0.000   0.000   0.314 >
      lattice:    a=      20.000 b=     20.000 c=      20.000
                  alpha=  90.000 beta=  90.000 gamma=  90.000
                  omega=      8000.0

      density cutoff= 30.000  fft= 50x 50x 50(    31335 waves    31335 per task)
      wavefnc cutoff= 15.000  fft= 50x 50x 50(    11060 waves    11060 per task)
      Ewald summation: cut radius=    6.37  and  1
                       Madelung Wigner-Seitz= 1.76011888 (alpha= 2.83729748 rs=12.40700982)

 technical parameters:
      time step=      5.80     ficticious mass=  400000.0
      tolerance=0.100E-06 (energy)   0.100E-06 (density)
      maximum iterations =      1000 (   10 inner    100 outer )





== Energy Calculation ==


          ============ Grassmann lmbfgs iteration ============
     >>>  ITERATION STARTED AT Thu Sep 22 08:49:06 2016  <<<
    iter.           Energy         DeltaE       DeltaRho 
    ------------------------------------------------------
      10   -0.2041356657E+02   -0.48711E-05    0.23682E-02
      20   -0.2041357207E+02   -0.89875E-07    0.41247E-07
  *** tolerance ok. iteration terminated
     >>>  ITERATION ENDED   AT Thu Sep 22 08:49:10 2016  <<<


==  Summary Of Results  ==

 number of electrons: spin up=    7.00000  down=    5.00000 (real space)

 total     energy    :  -0.2041357207E+02 (   -0.10207E+02/ion)
 total orbital energy:  -0.4948253435E+01 (   -0.41235E+00/electron)
 hartree   energy    :   0.1683732370E+02 (    0.14031E+01/electron)
 exc-corr  energy    :  -0.4323603492E+01 (   -0.36030E+00/electron)
 ion-ion   energy    :   0.4347470065E-01 (    0.21737E-01/ion)

 kinetic (planewave) :   0.7538900587E+01 (    0.62824E+00/electron)
 V_local (planewave) :  -0.4513527066E+02 (   -0.37613E+01/electron)
 V_nl    (planewave) :   0.4625603098E+01 (    0.38547E+00/electron)
 V_Coul  (planewave) :   0.3367464739E+02 (    0.28062E+01/electron)
 V_xc.   (planewave) :  -0.5652133849E+01 (   -0.47101E+00/electron)
 Virial Coefficient  :  -0.1656362739E+01

 orbital energies:
    -0.1994619E+00 (  -5.428eV)
    -0.1994619E+00 (  -5.428eV)
    -0.3302235E+00 (  -8.986eV)    -0.2999348E+00 (  -8.162eV)
    -0.3302235E+00 (  -8.986eV)    -0.2999349E+00 (  -8.162eV)
    -0.3583968E+00 (  -9.753eV)    -0.3353220E+00 (  -9.125eV)
    -0.5624858E+00 ( -15.306eV)    -0.5238421E+00 ( -14.255eV)
    -0.7658717E+00 ( -20.841eV)    -0.7430946E+00 ( -20.221eV)

 Total PSPW energy     :  -0.2041357207E+02


=== Spin Contamination ===

 <Sexact^2> =    2.0000000000000000     
 <S^2>      =    2.0029484134705502     



== Center of Charge ==

spin up     (    0.0000,   -0.0000,    0.0000 )
spin down   (    0.0000,    0.0000,   -0.0000 )
     total  (    0.0000,    0.0000,    0.0000 )
ionic       (    0.0000,    0.0000,    0.0000 )
crystal     (    0.0000,    0.0000,   -0.0000 )


== Crystal Dipole ==

mu   =  (   -0.0000,   -0.0000,   -0.0000 ) au
|mu| =     0.0000 au,       0.0001 Debye


== Molecular Dipole wrt Center of Mass ==

mu   =  (   -0.0000,   -0.0000,   -0.0000 ) au
|mu| =     0.0000 au,       0.0001 Debye

 output psi filename:./perm/s2-pspw-energy.movecs


== Timing ==

cputime in seconds
  prologue    :   0.558673E+01
  main loop   :   0.424714E+01
  epilogue    :   0.200338E-01
  total       :   0.985390E+01
  cputime/step:   0.111767E+00       (      38 evalulations,      17 linesearches)


Time spent doing                        total          step       percent
  total time                 :   0.985406E+01  0.259317E+00       100.0 %
  i/o time                   :   0.548607E+01  0.144370E+00        55.7 %
  FFTs                       :   0.166741E+00  0.438793E-02         1.7 %
  dot products               :   0.178815E+00  0.470566E-02         1.8 %
  geodesic                   :   0.274660E+00  0.722789E-02         2.8 %
  ffm_dgemm                  :   0.636101E-01  0.167395E-02         0.6 %
  fmf_dgemm                  :   0.211718E+00  0.557152E-02         2.1 %
  m_diagonalize              :   0.691879E-03  0.182073E-04         0.0 %
  exchange correlation       :   0.148924E+01  0.391906E-01        15.1 %
  local pseudopotentials     :   0.679016E-03  0.178688E-04         0.0 %
  non-local pseudopotentials :   0.116550E+00  0.306710E-02         1.2 %
  hartree potentials         :   0.119827E-01  0.315333E-03         0.1 %
  ion-ion interaction        :   0.102091E-02  0.268660E-04         0.0 %
  structure factors          :   0.611088E-02  0.160813E-03         0.1 %
  phase factors              :   0.240793E-04  0.633665E-06         0.0 %
  masking and packing        :   0.194830E+00  0.512711E-02         2.0 %
  queue fft                  :   0.170988E+01  0.449967E-01        17.4 %
  queue fft (serial)         :   0.963153E+00  0.253461E-01         9.8 %
  queue fft (message passing):   0.699771E+00  0.184150E-01         7.1 %

     >>>  JOB COMPLETED     AT Thu Sep 22 08:49:10 2016  <<<

 Task  times  cpu:       17.3s     wall:       17.4s
 Summary of allocated global arrays
-----------------------------------
  No active global arrays



                         GA Statistics for process    0
                         ------------------------------

       create   destroy   get      put      acc     scatter   gather  read&inc
calls:    0        0        0        0        0        0        0        0     
number of processes/call 0.00e+00 0.00e+00 0.00e+00 0.00e+00 0.00e+00
bytes total:             0.00e+00 0.00e+00 0.00e+00 0.00e+00 0.00e+00 0.00e+00
bytes remote:            0.00e+00 0.00e+00 0.00e+00 0.00e+00 0.00e+00 0.00e+00
Max memory consumed for GA by this process: 0 bytes
MA_summarize_allocated_blocks: starting scan ...
MA_summarize_allocated_blocks: scan completed: 0 heap blocks, 0 stack blocks
MA usage statistics:

	allocation statistics:
					      heap	     stack
					      ----	     -----
	current number of blocks	         0	         0
	maximum number of blocks	       275	         7
	current total bytes		         0	         0
	maximum total bytes		  99695016	   8408520
	maximum total K-bytes		     99696	      8409
	maximum total M-bytes		       100	         9


                                NWChem Input Module
                                -------------------





                                     CITATION
                                     --------
                Please cite the following reference when publishing
                           results obtained with NWChem:

                 M. Valiev, E.J. Bylaska, N. Govind, K. Kowalski,
              T.P. Straatsma, H.J.J. van Dam, D. Wang, J. Nieplocha,
                        E. Apra, T.L. Windus, W.A. de Jong
                 "NWChem: a comprehensive and scalable open-source
                  solution for large scale molecular simulations"
                      Comput. Phys. Commun. 181, 1477 (2010)
                           doi:10.1016/j.cpc.2010.04.018

                                      AUTHORS
                                      -------
          E. Apra, E. J. Bylaska, W. A. de Jong, N. Govind, K. Kowalski,
       T. P. Straatsma, M. Valiev, H. J. J. van Dam, D. Wang, T. L. Windus,
        J. Hammond, J. Autschbach, K. Bhaskaran-Nair, J. Brabec, K. Lopata,
       S. A. Fischer, S. Krishnamoorthy, W. Ma, M. Klemm, O. Villa, Y. Chen,
    V. Anisimov, F. Aquino, S. Hirata, M. T. Hackler, T. Risthaus, M. Malagoli,
       A. Marenich, A. Otero-de-la-Roza, J. Mullin, P. Nichols, R. Peverati,
     J. Pittner, Y. Zhao, P.-D. Fan, A. Fonari, M. Williamson, R. J. Harrison,
       J. R. Rehr, M. Dupuis, D. Silverstein, D. M. A. Smith, J. Nieplocha,
        V. Tipparaju, M. Krishnan, B. E. Van Kuiken, A. Vazquez-Mayagoitia,
        L. Jensen, M. Swart, Q. Wu, T. Van Voorhis, A. A. Auer, M. Nooijen,
      L. D. Crosby, E. Brown, G. Cisneros, G. I. Fann, H. Fruchtl, J. Garza,
        K. Hirao, R. A. Kendall, J. A. Nichols, K. Tsemekhman, K. Wolinski,
     J. Anchell, D. E. Bernholdt, P. Borowski, T. Clark, D. Clerc, H. Dachsel,
   M. J. O. Deegan, K. Dyall, D. Elwood, E. Glendening, M. Gutowski, A. C. Hess,
         J. Jaffe, B. G. Johnson, J. Ju, R. Kobayashi, R. Kutteh, Z. Lin,
   R. Littlefield, X. Long, B. Meng, T. Nakajima, S. Niu, L. Pollack, M. Rosing,
   K. Glaesemann, G. Sandrone, M. Stave, H. Taylor, G. Thomas, J. H. van Lenthe,
                               A. T. Wong, Z. Zhang.

 Total times  cpu:       17.3s     wall:       17.4s
