  MPI-parallelism will be employed.
------------------------------------------------------------
          Invoking FHI-aims ...
          Version 180607
          Git rev.: cb6d32f Disable preprocessor flag check for CMake [...]
          Compiled on 2018/06/20 at 13:36:59 on host sisu-login3.

          When using FHI-aims, please cite the following reference:

          Volker Blum, Ralf Gehrke, Felix Hanke, Paula Havu,
          Ville Havu, Xinguo Ren, Karsten Reuter, and Matthias Scheffler,
          'Ab Initio Molecular Simulations with Numeric Atom-Centered Orbitals',
          Computer Physics Communications 180, 2175-2196 (2009)

          For any questions about FHI-aims, please visit the aimsclub website
          with its forums and wiki. Contributions to both the forums and the
          wiki are warmly encouraged - they are for you, and everyone is welcome there.

------------------------------------------------------------



  Date     :  20180909, Time     :  070108.626
  Time zero on CPU 1             :   0.144009000000000E+00  s.
  Internal wall clock time zero  :           305708468.626  s.

  FHI-aims created a unique identifier for this run for later identification
  aims_uuid : ABCFA4EE-8147-41F6-ACA1-953B718FA31D

  Using       96 parallel tasks.
  Task        0 on host nid00054 reporting.
  Task        1 on host nid00054 reporting.
  Task        2 on host nid00054 reporting.
  Task        3 on host nid00054 reporting.
  Task        4 on host nid00054 reporting.
  Task        5 on host nid00054 reporting.
  Task        6 on host nid00054 reporting.
  Task        7 on host nid00054 reporting.
  Task        8 on host nid00054 reporting.
  Task        9 on host nid00054 reporting.
  Task       10 on host nid00054 reporting.
  Task       11 on host nid00054 reporting.
  Task       12 on host nid00054 reporting.
  Task       13 on host nid00054 reporting.
  Task       14 on host nid00054 reporting.
  Task       15 on host nid00054 reporting.
  Task       16 on host nid00054 reporting.
  Task       17 on host nid00054 reporting.
  Task       18 on host nid00054 reporting.
  Task       19 on host nid00054 reporting.
  Task       20 on host nid00054 reporting.
  Task       21 on host nid00054 reporting.
  Task       22 on host nid00054 reporting.
  Task       23 on host nid00054 reporting.
  Task       24 on host nid00055 reporting.
  Task       25 on host nid00055 reporting.
  Task       26 on host nid00055 reporting.
  Task       27 on host nid00055 reporting.
  Task       28 on host nid00055 reporting.
  Task       29 on host nid00055 reporting.
  Task       30 on host nid00055 reporting.
  Task       31 on host nid00055 reporting.
  Task       32 on host nid00055 reporting.
  Task       33 on host nid00055 reporting.
  Task       34 on host nid00055 reporting.
  Task       35 on host nid00055 reporting.
  Task       36 on host nid00055 reporting.
  Task       37 on host nid00055 reporting.
  Task       38 on host nid00055 reporting.
  Task       39 on host nid00055 reporting.
  Task       40 on host nid00055 reporting.
  Task       41 on host nid00055 reporting.
  Task       42 on host nid00055 reporting.
  Task       43 on host nid00055 reporting.
  Task       44 on host nid00055 reporting.
  Task       45 on host nid00055 reporting.
  Task       46 on host nid00055 reporting.
  Task       47 on host nid00055 reporting.
  Task       48 on host nid00056 reporting.
  Task       49 on host nid00056 reporting.
  Task       50 on host nid00056 reporting.
  Task       51 on host nid00056 reporting.
  Task       52 on host nid00056 reporting.
  Task       53 on host nid00056 reporting.
  Task       54 on host nid00056 reporting.
  Task       55 on host nid00056 reporting.
  Task       56 on host nid00056 reporting.
  Task       57 on host nid00056 reporting.
  Task       58 on host nid00056 reporting.
  Task       59 on host nid00056 reporting.
  Task       60 on host nid00056 reporting.
  Task       61 on host nid00056 reporting.
  Task       62 on host nid00056 reporting.
  Task       63 on host nid00056 reporting.
  Task       64 on host nid00056 reporting.
  Task       65 on host nid00056 reporting.
  Task       66 on host nid00056 reporting.
  Task       67 on host nid00056 reporting.
  Task       68 on host nid00056 reporting.
  Task       69 on host nid00056 reporting.
  Task       70 on host nid00056 reporting.
  Task       71 on host nid00056 reporting.
  Task       72 on host nid00057 reporting.
  Task       73 on host nid00057 reporting.
  Task       74 on host nid00057 reporting.
  Task       75 on host nid00057 reporting.
  Task       76 on host nid00057 reporting.
  Task       77 on host nid00057 reporting.
  Task       78 on host nid00057 reporting.
  Task       79 on host nid00057 reporting.
  Task       80 on host nid00057 reporting.
  Task       81 on host nid00057 reporting.
  Task       82 on host nid00057 reporting.
  Task       83 on host nid00057 reporting.
  Task       84 on host nid00057 reporting.
  Task       85 on host nid00057 reporting.
  Task       86 on host nid00057 reporting.
  Task       87 on host nid00057 reporting.
  Task       88 on host nid00057 reporting.
  Task       89 on host nid00057 reporting.
  Task       90 on host nid00057 reporting.
  Task       91 on host nid00057 reporting.
  Task       92 on host nid00057 reporting.
  Task       93 on host nid00057 reporting.
  Task       94 on host nid00057 reporting.
  Task       95 on host nid00057 reporting.

  Performing system and environment tests:
  | Environment variable OMP_NUM_THREADS correctly set to 1.
  | Maximum stacksize for task 0: unlimited
  | Maximum stacksize for task 1: unlimited
  | Maximum stacksize for task 2: unlimited
  | Maximum stacksize for task 3: unlimited
  | Maximum stacksize for task 4: unlimited
  | Maximum stacksize for task 5: unlimited
  | Maximum stacksize for task 6: unlimited
  | Maximum stacksize for task 7: unlimited
  | Maximum stacksize for task 8: unlimited
  | Maximum stacksize for task 9: unlimited
  | Maximum stacksize for task 10: unlimited
  | Maximum stacksize for task 11: unlimited
  | Maximum stacksize for task 12: unlimited
  | Maximum stacksize for task 13: unlimited
  | Maximum stacksize for task 14: unlimited
  | Maximum stacksize for task 15: unlimited
  | Maximum stacksize for task 16: unlimited
  | Maximum stacksize for task 17: unlimited
  | Maximum stacksize for task 18: unlimited
  | Maximum stacksize for task 19: unlimited
  | Maximum stacksize for task 20: unlimited
  | Maximum stacksize for task 21: unlimited
  | Maximum stacksize for task 22: unlimited
  | Maximum stacksize for task 23: unlimited
  | Maximum stacksize for task 24: unlimited
  | Maximum stacksize for task 25: unlimited
  | Maximum stacksize for task 26: unlimited
  | Maximum stacksize for task 27: unlimited
  | Maximum stacksize for task 28: unlimited
  | Maximum stacksize for task 29: unlimited
  | Maximum stacksize for task 30: unlimited
  | Maximum stacksize for task 31: unlimited
  | Maximum stacksize for task 32: unlimited
  | Maximum stacksize for task 33: unlimited
  | Maximum stacksize for task 34: unlimited
  | Maximum stacksize for task 35: unlimited
  | Maximum stacksize for task 36: unlimited
  | Maximum stacksize for task 37: unlimited
  | Maximum stacksize for task 38: unlimited
  | Maximum stacksize for task 39: unlimited
  | Maximum stacksize for task 40: unlimited
  | Maximum stacksize for task 41: unlimited
  | Maximum stacksize for task 42: unlimited
  | Maximum stacksize for task 43: unlimited
  | Maximum stacksize for task 44: unlimited
  | Maximum stacksize for task 45: unlimited
  | Maximum stacksize for task 46: unlimited
  | Maximum stacksize for task 47: unlimited
  | Maximum stacksize for task 48: unlimited
  | Maximum stacksize for task 49: unlimited
  | Maximum stacksize for task 50: unlimited
  | Maximum stacksize for task 51: unlimited
  | Maximum stacksize for task 52: unlimited
  | Maximum stacksize for task 53: unlimited
  | Maximum stacksize for task 54: unlimited
  | Maximum stacksize for task 55: unlimited
  | Maximum stacksize for task 56: unlimited
  | Maximum stacksize for task 57: unlimited
  | Maximum stacksize for task 58: unlimited
  | Maximum stacksize for task 59: unlimited
  | Maximum stacksize for task 60: unlimited
  | Maximum stacksize for task 61: unlimited
  | Maximum stacksize for task 62: unlimited
  | Maximum stacksize for task 63: unlimited
  | Maximum stacksize for task 64: unlimited
  | Maximum stacksize for task 65: unlimited
  | Maximum stacksize for task 66: unlimited
  | Maximum stacksize for task 67: unlimited
  | Maximum stacksize for task 68: unlimited
  | Maximum stacksize for task 69: unlimited
  | Maximum stacksize for task 70: unlimited
  | Maximum stacksize for task 71: unlimited
  | Maximum stacksize for task 72: unlimited
  | Maximum stacksize for task 73: unlimited
  | Maximum stacksize for task 74: unlimited
  | Maximum stacksize for task 75: unlimited
  | Maximum stacksize for task 76: unlimited
  | Maximum stacksize for task 77: unlimited
  | Maximum stacksize for task 78: unlimited
  | Maximum stacksize for task 79: unlimited
  | Maximum stacksize for task 80: unlimited
  | Maximum stacksize for task 81: unlimited
  | Maximum stacksize for task 82: unlimited
  | Maximum stacksize for task 83: unlimited
  | Maximum stacksize for task 84: unlimited
  | Maximum stacksize for task 85: unlimited
  | Maximum stacksize for task 86: unlimited
  | Maximum stacksize for task 87: unlimited
  | Maximum stacksize for task 88: unlimited
  | Maximum stacksize for task 89: unlimited
  | Maximum stacksize for task 90: unlimited
  | Maximum stacksize for task 91: unlimited
  | Maximum stacksize for task 92: unlimited
  | Maximum stacksize for task 93: unlimited
  | Maximum stacksize for task 94: unlimited
  | Maximum stacksize for task 95: unlimited
  | Current stacksize for task 0: unlimited
  | Current stacksize for task 1: unlimited
  | Current stacksize for task 2: unlimited
  | Current stacksize for task 3: unlimited
  | Current stacksize for task 4: unlimited
  | Current stacksize for task 5: unlimited
  | Current stacksize for task 6: unlimited
  | Current stacksize for task 7: unlimited
  | Current stacksize for task 8: unlimited
  | Current stacksize for task 9: unlimited
  | Current stacksize for task 10: unlimited
  | Current stacksize for task 11: unlimited
  | Current stacksize for task 12: unlimited
  | Current stacksize for task 13: unlimited
  | Current stacksize for task 14: unlimited
  | Current stacksize for task 15: unlimited
  | Current stacksize for task 16: unlimited
  | Current stacksize for task 17: unlimited
  | Current stacksize for task 18: unlimited
  | Current stacksize for task 19: unlimited
  | Current stacksize for task 20: unlimited
  | Current stacksize for task 21: unlimited
  | Current stacksize for task 22: unlimited
  | Current stacksize for task 23: unlimited
  | Current stacksize for task 24: unlimited
  | Current stacksize for task 25: unlimited
  | Current stacksize for task 26: unlimited
  | Current stacksize for task 27: unlimited
  | Current stacksize for task 28: unlimited
  | Current stacksize for task 29: unlimited
  | Current stacksize for task 30: unlimited
  | Current stacksize for task 31: unlimited
  | Current stacksize for task 32: unlimited
  | Current stacksize for task 33: unlimited
  | Current stacksize for task 34: unlimited
  | Current stacksize for task 35: unlimited
  | Current stacksize for task 36: unlimited
  | Current stacksize for task 37: unlimited
  | Current stacksize for task 38: unlimited
  | Current stacksize for task 39: unlimited
  | Current stacksize for task 40: unlimited
  | Current stacksize for task 41: unlimited
  | Current stacksize for task 42: unlimited
  | Current stacksize for task 43: unlimited
  | Current stacksize for task 44: unlimited
  | Current stacksize for task 45: unlimited
  | Current stacksize for task 46: unlimited
  | Current stacksize for task 47: unlimited
  | Current stacksize for task 48: unlimited
  | Current stacksize for task 49: unlimited
  | Current stacksize for task 50: unlimited
  | Current stacksize for task 51: unlimited
  | Current stacksize for task 52: unlimited
  | Current stacksize for task 53: unlimited
  | Current stacksize for task 54: unlimited
  | Current stacksize for task 55: unlimited
  | Current stacksize for task 56: unlimited
  | Current stacksize for task 57: unlimited
  | Current stacksize for task 58: unlimited
  | Current stacksize for task 59: unlimited
  | Current stacksize for task 60: unlimited
  | Current stacksize for task 61: unlimited
  | Current stacksize for task 62: unlimited
  | Current stacksize for task 63: unlimited
  | Current stacksize for task 64: unlimited
  | Current stacksize for task 65: unlimited
  | Current stacksize for task 66: unlimited
  | Current stacksize for task 67: unlimited
  | Current stacksize for task 68: unlimited
  | Current stacksize for task 69: unlimited
  | Current stacksize for task 70: unlimited
  | Current stacksize for task 71: unlimited
  | Current stacksize for task 72: unlimited
  | Current stacksize for task 73: unlimited
  | Current stacksize for task 74: unlimited
  | Current stacksize for task 75: unlimited
  | Current stacksize for task 76: unlimited
  | Current stacksize for task 77: unlimited
  | Current stacksize for task 78: unlimited
  | Current stacksize for task 79: unlimited
  | Current stacksize for task 80: unlimited
  | Current stacksize for task 81: unlimited
  | Current stacksize for task 82: unlimited
  | Current stacksize for task 83: unlimited
  | Current stacksize for task 84: unlimited
  | Current stacksize for task 85: unlimited
  | Current stacksize for task 86: unlimited
  | Current stacksize for task 87: unlimited
  | Current stacksize for task 88: unlimited
  | Current stacksize for task 89: unlimited
  | Current stacksize for task 90: unlimited
  | Current stacksize for task 91: unlimited
  | Current stacksize for task 92: unlimited
  | Current stacksize for task 93: unlimited
  | Current stacksize for task 94: unlimited
  | Current stacksize for task 95: unlimited
  | Checking for scalapack...
  | Testing pdtran()...
  | All pdtran() tests passed.

  Obtaining array dimensions for all initial allocations:
  
  -----------------------------------------------------------------------
  Parsing control.in (first pass over file, find array dimensions only).
  The contents of control.in will be repeated verbatim below
  unless switched off by setting 'verbatim_writeout .false.' .
  in the first line of control.in .
  -----------------------------------------------------------------------
  
  #########################################################################################
  #
  #  Test run input file control.in
  #
  #########################################################################################
  
  #  Physical model
    qpe_calc gw
    xc               pbe0
    RI_method v
    relativistic     atomic_zora scalar
  
    anacon_type 1
    frequency_points 200
    n_anacon_par 16
  
  # DFT - SCF convergence settings
    occupation_type    gaussian 0.0001
    mixer              pulay
      n_max_pulay        10
      charge_mix_param   0.2
    sc_accuracy_rho    1E-6
    sc_accuracy_eev    1E-4
    sc_accuracy_etot   1E-6
    sc_iter_limit      100
    prodbas_threshold  1.e-4
  
    override_illconditioning .true.
  
  ################################################################################
  #
  #  FHI-aims code project
  # Igor Ying Zhang and Xinguo Ren, Fritz Haber Institute Berlin, 2012
  #
  #  Suggested "def2-QZVP" defaults for H atom (to be pasted into control.in file)
  #
  ################################################################################
    species        H
  #     global species definitions
      nucleus             1
      mass                1.00794
  #
      l_hartree           6
  #
      cut_pot             4.0  2.0  1.0
      basis_dep_cutoff    0e-0
  #
      radial_base         24 7.0
      radial_multiplier   6
      angular_grids       specified
        division   0.1930   50
        division   0.3175  110
        division   0.4293  194
        division   0.5066  302
        division   0.5626  434
        division   0.5922  590
  #      division   0.6227  974
  #      division   0.6868 1202
        outer_grid  770
  #      outer_grid  434
  ################################################################################
  #
  #  Definition of "minimal" basis
  #
  ################################################################################
  #     valence basis states
      valence      1  s   1.
  #     ion occupancy
      ion_occ      1  s   0.5
  ################################################################################
  #
  #   For exact comparison with all GTO-based codes, one or more of
  #   the following flags are needed:
  #
      include_min_basis   .false.
      pure_gauss          .true.
  #
  
  
  # H def2-QZVP
   gaussian 0 4
       190.6916900            0.0007082
        28.6055320            0.0054679
         6.5095943            0.0279666
         1.8412455            0.1076454
   gaussian 0 1 0.59853725
   gaussian 0 1 0.21397624
   gaussian 0 1 0.80316286E-01
   gaussian 1 1 2.29200000
   gaussian 1 1 0.83800000
   gaussian 1 1 0.29200000
   gaussian 2 1 2.06200000
   gaussian 2 1 0.66200000
   gaussian 3 1 1.39700000
  ################################################################################
  #
  #  FHI-aims code project
  # Igor Ying Zhang and Xinguo Ren, Fritz Haber Institute Berlin, 2012
  #
  #  Suggested "def2-QZVP" defaults for C atom (to be pasted into control.in file)
  #
  ################################################################################
    species        C
  #     global species definitions
      nucleus             6
      mass                12.0107
  #
      l_hartree           6
  #
      cut_pot             4.0  2.0  1.0
      basis_dep_cutoff    0e-0
  #
      radial_base         34 7.0
      radial_multiplier   6
      angular_grids       specified
        division   0.2187   50
        division   0.4416  110
        division   0.6335  194
        division   0.7727  302
        division   0.8772  434
        division   0.9334  590
  #      division   0.9924  770
  #      division   1.0230  974
  #      division   1.5020 1202
  #     outer_grid  974
        outer_grid  770
  #      outer_grid  434
  ################################################################################
  #
  #  Definition of "minimal" basis
  #
  ################################################################################
  #     valence basis states
      valence      2  s   2.
      valence      2  p   2.
  #     ion occupancy
      ion_occ      2  s   1.
      ion_occ      2  p   1.
  ################################################################################
  #
  #   For exact comparison with all GTO-based codes, one or more of
  #   the following flags are needed:
  #
      include_min_basis   .false.
      pure_gauss          .true.
  #
  
  
  # C def2-QZVP
   gaussian 0 8
     67025.0710290            0.0000387
     10039.9865380            0.0003011
      2284.9316911            0.0015788
       647.1412213            0.0066087
       211.0947234            0.0233671
        76.1776439            0.0704207
        29.6338392            0.1736034
        12.1877851            0.3229231
   gaussian 0 2
        53.0260063            0.0748974
        15.2585028            0.7613622
   gaussian 0 1 5.2403957464
   gaussian 0 1 2.2905022379
   gaussian 0 1 0.69673283006
   gaussian 0 1 0.27599337363
   gaussian 0 1 0.10739884389
   gaussian 1 5
       105.1255508            0.0008465
        24.8844611            0.0066274
         7.8637231            0.0301204
         2.8407002            0.0999514
         1.1227137            0.2382630
   gaussian 1 1 0.46050725555
   gaussian 1 1 0.18937530913
   gaussian 1 1 0.75983791611E-01
   gaussian 2 1 1.84800000
   gaussian 2 1 0.64900000
   gaussian 2 1 0.22800000
   gaussian 3 1 1.41900000
   gaussian 3 1 0.48500000
   gaussian 4 1 1.01100000
  ################################################################################
  #
  #  FHI-aims code project
  # Igor Ying Zhang and Xinguo Ren, Fritz Haber Institute Berlin, 2012
  #
  #  Suggested "def2-QZVP" defaults for N atom (to be pasted into control.in file)
  #
  ################################################################################
    species        N
  #     global species definitions
      nucleus             7
      mass                14.0067
  #
      l_hartree           6
  #
      cut_pot             4.0  2.0  1.0
      basis_dep_cutoff    0e-0
  #
      radial_base         35 7.0
      radial_multiplier   6
      angular_grids       specified
        division   0.1841   50
        division   0.3514  110
        division   0.5126  194
        division   0.6292  302
        division   0.6939  434
        division   0.7396  590
  #      division   0.7632  770
  #      division   0.8122  974
  #      division   1.1604 1202
  #      outer_grid  974
        outer_grid  770
  #      outer_grid  434
  ################################################################################
  #
  #  Definition of "minimal" basis
  #
  ################################################################################
  #     valence basis states
      valence      2  s   2.
      valence      2  p   3.
  #     ion occupancy
      ion_occ      2  s   1.
      ion_occ      2  p   2.
  ################################################################################
  #
  #   For exact comparison with all GTO-based codes, one or more of
  #   the following flags are needed:
  #
      include_min_basis   .false.
      pure_gauss          .true.
  #
  
  
  # N def2-QZVP
   gaussian 0 8
     90726.8892100            0.0000393
     13590.5288010            0.0003051
      3092.9883781            0.0016001
       875.9987636            0.0066983
       285.7446998            0.0236901
       103.1191342            0.0714554
        40.1285568            0.1763277
        16.5280957            0.3267759
   gaussian 0 2
        69.3909610            0.0800521
        20.4282006            0.7826806
   gaussian 0 1 7.1292587972
   gaussian 0 1 3.1324304893
   gaussian 0 1 0.98755778723
   gaussian 0 1 0.38765721307
   gaussian 0 1 0.14909883075
   gaussian 1 5
       150.0574267           -0.0008622
        35.4915995           -0.0068571
        11.2478642           -0.0317957
         4.0900305           -0.1053740
         1.6220573           -0.2451971
   gaussian 1 1 0.66442261530
   gaussian 1 1 0.27099770070
   gaussian 1 1 0.10688749984
   gaussian 2 1 2.83700000
   gaussian 2 1 0.96800000
   gaussian 2 1 0.33500000
   gaussian 3 1 2.02700000
   gaussian 3 1 0.68500000
   gaussian 4 1 1.42700000
  ################################################################################
  #
  #  FHI-aims code project
  # Igor Ying Zhang and Xinguo Ren, Fritz Haber Institute Berlin, 2012
  #
  #  Suggested "def2-QZVP" defaults for O atom (to be pasted into control.in file)
  #
  ################################################################################
    species        O
  #     global species definitions
      nucleus             8
      mass                15.9994
  #
      l_hartree           6
  #
      cut_pot             4.0  2.0  1.0
      basis_dep_cutoff    0e-0
  #
      radial_base         36 7.0
      radial_multiplier   6
      angular_grids       specified
        division   0.1817   50
        division   0.3417  110
        division   0.4949  194
        division   0.6251  302
        division   0.8014  434
        division   0.8507  590
  #      division   0.8762  770
  #      division   0.9023  974
  #      division   1.2339 1202
  #      outer_grid 974
        outer_grid 770
  #      outer_grid  434
  ################################################################################
  #
  #  Definition of "minimal" basis
  #
  ################################################################################
  #     valence basis states
      valence      2  s   2.
      valence      2  p   4.
  #     ion occupancy
      ion_occ      2  s   1.
      ion_occ      2  p   3.
  ################################################################################
  #
  #   For exact comparison with all GTO-based codes, one or more of
  #   the following flags are needed:
  #
      include_min_basis   .false.
      pure_gauss          .true.
  #
  
  
  # O def2-QZVP
   gaussian 0 8
    116506.4690800            0.0000404
     17504.3497240            0.0003126
      3993.4513230            0.0016341
      1133.0063186            0.0068283
       369.9956959            0.0241244
       133.6207435            0.0727302
        52.0356436            0.1793443
        21.4619393            0.3305959
   gaussian 0 2
        89.8350513            0.0964687
        26.4280108            0.9411748
   gaussian 0 1 9.2822824649
   gaussian 0 1 4.0947728533
   gaussian 0 1 1.3255349078
   gaussian 0 1 0.51877230787
   gaussian 0 1 0.19772676454
   gaussian 1 5
       191.1525581            0.0025116
        45.2333567            0.0200392
        14.3534659            0.0936091
         5.2422372            0.3061813
         2.0792419            0.6781050
   gaussian 1 1 0.84282371424
   gaussian 1 1 0.33617694891
   gaussian 1 1 0.12863997974
   gaussian 2 1 3.77500000
   gaussian 2 1 1.30000000
   gaussian 2 1 0.44400000
   gaussian 3 1 2.66600000
   gaussian 3 1 0.85900000
   gaussian 4 1 1.84600000
  ################################################################################
  #
  #  FHI-aims code project
  # Igor Ying Zhang and Xinguo Ren, Fritz Haber Institute Berlin, 2012
  #
  #  Suggested "def2-QZVP" defaults for F atom (to be pasted into control.in file)
  #
  ################################################################################
    species        F
  #     global species definitions
      nucleus             9
      mass                18.9984032
  #
      l_hartree           6
  #
      cut_pot             4.0  2.0  1.0
      basis_dep_cutoff    0e-0
  #
      radial_base         37 7.0
      radial_multiplier   6
      angular_grids       specified
        division   0.4014  110
        division   0.5291  194
        division   0.6019  302
        division   0.6814  434
        division   0.7989  590
  #      division   0.8965  770
  #      division   1.3427  974
  #      outer_grid   974
        outer_grid   770
  #      outer_grid  434
  ################################################################################
  #
  #  Definition of "minimal" basis
  #
  ################################################################################
  #     valence basis states
      valence      2  s   2.
      valence      2  p   5.
  #     ion occupancy
      ion_occ      2  s   1.
      ion_occ      2  p   4.
  ################################################################################
  #
  #   For exact comparison with all GTO-based codes, one or more of
  #   the following flags are needed:
  #
      include_min_basis   .false.
      pure_gauss          .true.
  #
  
  
  # F def2-QZVP
   gaussian 0 8
    132535.9734500            0.0000474
     19758.1125880            0.0003707
      4485.1996947            0.0019451
      1273.8151020            0.0080573
       418.9383124            0.0279929
       152.5572198            0.0827351
        59.8215248            0.1985417
        24.8190769            0.3486063
   gaussian 0 2
       100.7444667            0.1050507
        30.1037283            0.9406847
   gaussian 0 1 10.814283272
   gaussian 0 1 4.8172886770
   gaussian 0 1 1.6559334213
   gaussian 0 1 0.64893519582
   gaussian 0 1 0.24778104545
   gaussian 1 5
       240.9665411            0.0030390
        57.0206998            0.0243577
        18.1269521            0.1144293
         6.6457405            0.3706466
         2.6375723            0.7979155
   gaussian 1 1 1.0638217200
   gaussian 1 1 0.41932562750
   gaussian 1 1 0.15747588299
   gaussian 2 1 5.01400000
   gaussian 2 1 1.72500000
   gaussian 2 1 0.58600000
   gaussian 3 1 3.56200000
   gaussian 3 1 1.14800000
   gaussian 4 1 2.37600000
  ################################################################################
  #
  #  FHI-aims code project
  # Igor Ying Zhang and Xinguo Ren, Fritz Haber Institute Berlin, 2012
  #
  #  Suggested "def2-QZVP" defaults for Li atom (to be pasted into control.in file)
  #
  ################################################################################
    species        Li
  #     global species definitions
      nucleus             3
      mass                6.941
  #
      l_hartree           6
  #
      cut_pot             4.0  2.0  1.0
      basis_dep_cutoff    0e-0
  #
      radial_base         29 7.0
      radial_multiplier   6
      angular_grids       specified
        division   0.4484  110
        division   0.5659  194
        division   0.6315  302
        division   0.6662  434
        division   0.8186  590
  #      division   0.9037  770
  #      division   6.2760  974
  #      outer_grid   974
        outer_grid  770
  #      outer_grid  434
  ################################################################################
  #
  #  Definition of "minimal" basis
  #
  ################################################################################
  #     valence basis states
      valence      2  s   1.
  #     ion occupancy
      ion_occ      1  s   2.
  ################################################################################
  #
  #   For exact comparison with all GTO-based codes, one or more of
  #   the following flags are needed:
  #
      include_min_basis   .false.
      pure_gauss          .true.
  #
  
  
  # Li def2-QZVP
   gaussian 0 9
     14853.9770850            0.0000427
      2225.2236477            0.0003324
       504.8873901            0.0017518
       142.4584755            0.0073478
        46.3155996            0.0258998
        16.6553355            0.0766707
         6.4331186            0.1827608
         2.6027044            0.3265543
         1.0897245            0.3700043
   gaussian 0 2
         4.4236596            0.1112099
         1.2356395            0.7998734
   gaussian 0 1 0.46067470602
   gaussian 0 1 0.96617166955E-01
   gaussian 0 1 0.45915452296E-01
   gaussian 0 1 0.21140048730E-01
   gaussian 1 3
         3.2605109            0.0086505
         0.6500304            0.0476141
         0.1694167            0.2100114
   gaussian 1 1 0.55732343767E-01
   gaussian 1 1 0.20489959241E-01
   gaussian 1 1 3.3270000
   gaussian 2 1 0.2300000
   gaussian 2 1 0.0757000
   gaussian 3 1 0.1350000
  ################################################################################
  #
  #  FHI-aims code project
  # Igor Ying Zhang and Xinguo Ren, Fritz Haber Institute Berlin, 2012
  #
  #  Suggested "def2-QZVP" defaults for B atom (to be pasted into control.in file)
  #
  ################################################################################
    species        B
  #     global species definitions
      nucleus             5
      mass                10.811
  #
      l_hartree           6
  #
      cut_pot             4.0  2.0  1.0
      basis_dep_cutoff    0e-0
  #
      radial_base         32 7.0
      radial_multiplier   6
      angular_grids       specified
        division   0.3742  110
        division   0.5197  194
        division   0.5753  302
        division   0.7664  434
  #      division   0.8392  770
  #      division   1.6522  974
  #      outer_grid   974
        outer_grid  770
  #      outer_grid  434
  ################################################################################
  #
  #  Definition of "minimal" basis
  #
  ################################################################################
  #     valence basis states
      valence      2  s   2.
      valence      2  p   1.
  #     ion occupancy
      ion_occ      2  s   1.
  ################################################################################
  #
  #   For exact comparison with all GTO-based codes, one or more of
  #   the following flags are needed:
  #
      include_min_basis   .false.
      pure_gauss          .true.
  #
  
  
  # B def2-QZVP
   gaussian 0 8
     46447.6670560            0.0000384
      6957.6889042            0.0002984
      1583.4428403            0.0015645
       448.4660101            0.0065477
       146.2863926            0.0231390
        52.7843861            0.0696158
        20.5193962            0.1711964
         8.4185659            0.3191319
   gaussian 0 2
        36.5100183            0.0789906
        10.5418540            0.7892638
   gaussian 0 1 3.6004091387
   gaussian 0 1 1.5617023749
   gaussian 0 1 0.44997370775
   gaussian 0 1 0.18075230237
   gaussian 0 1 0.71596696319E-01
   gaussian 1 5
        72.2404628            0.0008654
        16.8077072            0.0068762
         5.2259411            0.0309767
         1.8508351            0.1043236
         0.7220678            0.2616414
   gaussian 1 1 0.29491018056
   gaussian 1 1 0.12201141839
   gaussian 1 1 0.49865393625E-01
   gaussian 2 1 1.11000000
   gaussian 2 1 0.40200000
   gaussian 2 1 0.14500000
   gaussian 3 1 0.88200000
   gaussian 3 1 0.31100000
   gaussian 4 1 0.67300000
  ################################################################################
  #
  #  FHI-aims code project
  #  Igor Ying Zhang and Xinguo Ren, Fritz Haber Institute Berlin, 2012
  #
  #  Suggested "def2-QZVP" defaults for Si atom (to be pasted into control.in file)
  #
  ################################################################################
    species        Si
  #     global species definitions
      nucleus             14
      mass                28.0855
  #
      l_hartree           6
  #
      cut_pot             4.0          2.0  1.0
      basis_dep_cutoff    0e-0
  #
      radial_base         42 7.0
      radial_multiplier   6
      angular_grids       specified
        division   0.4121   50
        division   0.7665  110
        division   1.0603  194
        division   1.2846  302
        division   1.4125  434
        division   1.4810  590
  #      division   1.5529  770
  #      division   1.6284  974
  #      division   2.6016 1202
  #      outer_grid   974
        outer_grid   770
  #      outer_grid  434
  ################################################################################
  #
  #  Definition of "minimal" basis
  #
  ################################################################################
  #     valence basis states
      valence      3  s   2.
      valence      3  p   2.
  #     ion occupancy
      ion_occ      3  s   1.
      ion_occ      3  p   1.
  ################################################################################
  #
  #   For exact comparison with all GTO-based codes, one or more of
  #   the following flags are needed:
  #
      include_min_basis   .false.
      pure_gauss          .true.
  #
  
  
  # Si def2-QZVP
   gaussian 0 10
    918070.6956500            0.0000127
    137485.2538600            0.0000984
     31287.7727140            0.0005173
      8861.6105697            0.0021785
      2890.6943156            0.0078657
      1043.4063979            0.0249876
       406.8016028            0.0697618
       168.4836021            0.1647336
        73.1856288            0.3028560
        32.9984854            0.3600726
   gaussian 0 3
       278.7875133            0.0201855
        85.9102287            0.1772041
        32.9926040            0.6358786
   gaussian 0 1 15.033693254
   gaussian 0 1 5.7257514773
   gaussian 0 1 2.6146521029
   gaussian 0 1 1.1757833152
   gaussian 0 1 0.35432330868
   gaussian 0 1 0.16248335806
   gaussian 0 1 0.68332457181E-01
   gaussian 1 8
      1775.8850516            0.0002019
       420.8378685            0.0017544
       136.4229024            0.0095040
        51.7009917            0.0373257
        21.5594560            0.1108540
         9.5559200            0.2375641
         4.3529819            0.3529578
         2.0096964            0.3288593
   gaussian 1 2
        46.4181538            0.0258588
         1.9076418           -0.5987487
   gaussian 1 1 0.92337221587
   gaussian 1 1 0.34515720370
   gaussian 1 1 0.13656834761
   gaussian 1 1 0.52987060586E-01
   gaussian 2 1 2.64500000
   gaussian 2 1 0.608000000
   gaussian 2 1 0.272000000
   gaussian 2 1 0.113000000
   gaussian 3 1 0.212000000
   gaussian 3 1 0.541000000
   gaussian 4 1 0.461000000
  ################################################################################
  #
  #  FHI-aims code project
  # Igor Ying Zhang and Xinguo Ren, Fritz Haber Institute Berlin, 2012
  #
  #  Suggested "def2-QZVP" defaults for P atom (to be pasted into control.in file)
  #
  ################################################################################
    species        P
  #     global species definitions
      nucleus             15
      mass                30.973762
  #
      l_hartree           6
  #
      cut_pot             4.0          2.0  1.0
      basis_dep_cutoff    0e-0
  #
      radial_base         43 7.0
      radial_multiplier   6
      angular_grids       specified
        division   0.2995   50
        division   0.5998  110
        division   0.9240  194
        division   1.0921  302
        division   1.2863  434
        division   1.3165  590
  #      division   1.4113  770
  #      division   1.5128  974
  #      division   2.4980 1202
        outer_grid  770
  #      outer_grid  434
  ################################################################################
  #
  #  Definition of "minimal" basis
  #
  ################################################################################
  #     valence basis states
      valence      3  s   2.
      valence      3  p   3.
  #     ion occupancy
      ion_occ      3  s   1.
      ion_occ      3  p   2.
  ################################################################################
  #
  #   For exact comparison with all GTO-based codes, one or more of
  #   the following flags are needed:
  #
      include_min_basis   .false.
      pure_gauss          .true.
  #
  
  
  # P def2-QZVP
   gaussian 0 10
   1090561.7138000            0.0000121
    163316.3946100            0.0000944
     37166.6074510            0.0004962
     10526.8809450            0.0020900
      3433.9976028            0.0075489
      1239.5360480            0.0240104
       483.2745620            0.0672315
       200.1691159            0.1597867
        86.9603948            0.2973591
        39.2112834            0.3618717
   gaussian 0 3
       336.7588366            0.0191547
       103.7217979            0.1713408
        39.7718612            0.6368966
   gaussian 0 1 17.888612952
   gaussian 0 1 6.9644556879
   gaussian 0 1 3.2198092087
   gaussian 0 1 1.4669943979
   gaussian 0 1 0.47765437532
   gaussian 0 1 0.21637789241
   gaussian 0 1 0.90235894336E-01
   gaussian 1 8
      2019.6711374            0.0002136
       478.6012509            0.0018569
       155.1494250            0.0100707
        58.8163566            0.0396052
        24.5445128            0.1173607
        10.8835711            0.2495054
         4.9624791            0.3642129
         2.3002912            0.3176413
   gaussian 1 2
        59.3713450            0.3943292
         3.0694591           -6.3522960
   gaussian 1 1 1.0634401739
   gaussian 1 1 0.45022152161
   gaussian 1 1 0.18267271344
   gaussian 1 1 0.71610333771E-01
   gaussian 2 1 3.34300000
   gaussian 2 1 0.807000000
   gaussian 2 1 0.365000000
   gaussian 2 1 0.154000000
   gaussian 3 1 0.280000000
   gaussian 3 1 0.703000000
   gaussian 4 1 0.597000000
  ################################################################################
  #
  #  FHI-aims code project
  # Igor Ying Zhang and Xinguo Ren, Fritz Haber Institute Berlin, 2009
  #
  #  Suggested "def2-QZVP" defaults for S atom (to be pasted into control.in file)
  #
  ################################################################################
    species        S
  #     global species definitions
      nucleus             16
      mass                32.065
  #
      l_hartree           6
  #
      cut_pot             4.0          2.0  1.0
      basis_dep_cutoff    0e-0
  #
      radial_base         44 7.0
      radial_multiplier   6
      angular_grids       specified
        division   0.4665  110
        division   0.5810  194
        division   0.7139  302
        division   0.8274  434
        division   0.9105  590
  #      division   1.0975  770
  #      division   1.2028  974
  #      outer_grid  974
        outer_grid 770
  #      outer_grid  434
  ################################################################################
  #
  #  Definition of "minimal" basis
  #
  ################################################################################
  #     valence basis states
      valence      3  s   2.
      valence      3  p   4.
  #     ion occupancy
      ion_occ      3  s   1.
      ion_occ      3  p   3.
  ################################################################################
  #
  #   For exact comparison with all GTO-based codes, one or more of
  #   the following flags are needed:
  #
      include_min_basis   .false.
      pure_gauss          .true.
  #
  
  
  # S def2-QZVP
   gaussian 0 10
   1273410.9023000            0.0000118
    190697.8300700            0.0000915
     43397.8853300            0.0004809
     12291.8096770            0.0020257
      4009.7420824            0.0073190
      1447.3531030            0.0233005
       564.3010291            0.0653862
       233.7450624            0.1561445
       101.5640281            0.2931856
        45.8059072            0.3628791
   gaussian 0 3
       394.2728150            0.0187533
       121.7224959            0.1687073
        46.7541260            0.6380683
   gaussian 0 1 20.923008254
   gaussian 0 1 8.2685567800
   gaussian 0 1 3.8629345671
   gaussian 0 1 1.7794684781
   gaussian 0 1 0.61064260103
   gaussian 0 1 0.27412269445
   gaussian 0 1 0.11325939107
   gaussian 1 8
      2189.8930459            0.0002391
       518.9459659            0.0020772
       168.1956015            0.0112424
        63.7452828            0.0440699
        26.5970331            0.1291878
        11.7742514            0.2691082
         5.3534379            0.3785593
         2.4701912            0.2969213
   gaussian 1 2
        82.1202883           -0.0394203
         4.9523533            0.6404840
   gaussian 1 1 1.0828262029
   gaussian 1 1 0.49271277356
   gaussian 1 1 0.20483450942
   gaussian 1 1 0.80743615716E-01
   gaussian 2 1 4.15900000
   gaussian 2 1 1.01900000
   gaussian 2 1 0.464000000
   gaussian 2 1 0.194000000
   gaussian 3 1 0.335000000
   gaussian 3 1 0.869000000
   gaussian 4 1 0.683000000
  ################################################################################
  #
  #  FHI-aims code project
  # Igor Ying Zhang and Xinguo Ren, Fritz Haber Institute Berlin, 2012
  #
  #  Suggested "def2-QZVP" defaults for Cl atom (to be pasted into control.in file)
  #
  ################################################################################
    species        Cl
  #     global species definitions
      nucleus             17
      mass                35.453
  #
      l_hartree           6
  #
      cut_pot             4.0          2.0  1.0
      basis_dep_cutoff    0e-0
  #
      radial_base         45 7.0
      radial_multiplier   6
      angular_grids       specified
        division   0.4412  110
        division   0.5489  194
        division   0.6734  302
        division   0.7794  434
        division   0.9402  590
  #      division   1.0779  770
  #      division   1.1792  974
  #      outer_grid  974
        outer_grid  770
  #      outer_grid  434
  ################################################################################
  #
  #  Definition of "minimal" basis
  #
  ################################################################################
  #     valence basis states
      valence      3  s   2.
      valence      3  p   5.
  #     ion occupancy
      ion_occ      3  s   1.
      ion_occ      3  p   4.
  ################################################################################
  #
  #   For exact comparison with all GTO-based codes, one or more of
  #   the following flags are needed:
  #
      include_min_basis   .false.
      pure_gauss          .true.
  #
  
  
  # Cl def2-QZVP
   gaussian 0 10
   1467459.0095000            0.0000115
    219756.1643300            0.0000892
     50010.7703010            0.0004691
     14164.8239180            0.0019762
      4620.7465525            0.0071420
      1667.8991635            0.0227532
       650.2919926            0.0639598
       269.3803738            0.1533106
       117.0675211            0.2898695
        52.8117668            0.3634807
   gaussian 0 3
       461.4276999            0.0180195
       142.1266535            0.1648944
        54.4378388            0.6389159
   gaussian 0 1 24.160770219
   gaussian 0 1 9.7083540306
   gaussian 0 1 4.5640696733
   gaussian 0 1 2.1194744832
   gaussian 0 1 0.75722365394
   gaussian 0 1 0.33747224597
   gaussian 0 1 0.13860775149
   gaussian 1 8
      2501.9457890            0.0002424
       592.8805928            0.0021080
       192.1808919            0.0114327
        72.8757105            0.0449567
        30.4363584            0.1319748
        13.4901789            0.2749364
         6.1478071            0.3834724
         2.8450945            0.2887194
   gaussian 1 2
       105.3939794           -0.0343118
         6.7369739            0.6406082
   gaussian 1 1 1.2421095772
   gaussian 1 1 0.55669714254
   gaussian 1 1 0.23387801464
   gaussian 1 1 0.93164490890E-01
   gaussian 2 1 5.19100000
   gaussian 2 1 1.27600000
   gaussian 2 1 0.583000000
   gaussian 2 1 0.243000000
   gaussian 3 1 0.423000000
   gaussian 3 1 1.08900000
   gaussian 4 1 0.827000000
  ################################################################################
  #
  #  FHI-aims code project
  #  VB, Fritz-Haber Institut, 2007
  #
  #  Suggested "safe" defaults for As atom (to be pasted into control.in file)
  #
  ################################################################################
    species        As
  #
      nucleus             33
      mass                74.92160
  #
      l_hartree           6
  #
      cut_pot             4.0          2.0  1.0
      basis_dep_cutoff    0.d0
  #
      radial_base         55 7.0
      radial_multiplier   6
      angular_grids       specified
        division   0.9730  194
        division   1.1593  302
        division   1.3290  434
        division   1.4293  590
        outer_grid  770
  
  ################################################################################
  #
  #  Definition of "minimal" basis
  #
  ################################################################################
  #     valence basis states
      valence      4  s   2.
      valence      4  p   3.
      valence      3  d  10.
  #     ion occupancy
      ion_occ      4  s   1.
      ion_occ      4  p   2.
      ion_occ      3  d  10.
  ################################################################################
  #
  #   For exact comparison with all GTO-based codes, one or more of
  #   the following flags are needed:
  #
      include_min_basis   .false.
      pure_gauss          .true.
  #
  # As def2-QZVP
  gaussian 0 11
 8217482.6198000             0.70590618422E-05
 1230500.3720000             0.54880889611E-04
 280225.8664800              0.28809164698E-03
  79482.5094150              0.12129779464E-02
  25963.7833510              0.43914559880E-02
   9381.4010193              0.14125362961E-01
   3660.4911972              0.40657915618E-01
   1518.2356024              0.10300382633
    661.80098920             0.21730077101
    300.58642127             0.33995751412
    141.11137296             0.31088634077
  gaussian 0 4
   2577.0870580              0.70752991980E-02
    798.07872277             0.71383615256E-01
    306.57574948             0.34287024634
    132.27558802             0.74361403413
  gaussian 0 1 67.448702235
  gaussian 0 1 29.209180441
  gaussian 0 1 14.156509326
  gaussian 0 1 6.5561506682
  gaussian 0 1 3.1392847238
  gaussian 0 1 1.4294631050
  gaussian 0 1 0.41103390885
  gaussian 0 1 0.20032453310
  gaussian 0 1 0.85669928850E-01
  gaussian 1 10
  25198.5042780              0.54758168372E-04
   5972.5601381              0.48572462452E-03
   1941.9123183              0.27908085625E-02
    743.59381104             0.12201505962E-01
    315.63828052             0.42666285138E-01
    143.96878925             0.11870919141
     69.068683164            0.24909407023
     34.254305629            0.36061356903
     17.371746759            0.29392241832
      8.7634555628           0.97829057366E-01
  gaussian 1 5
    228.49024582            -0.24900140765E-02
     86.313555488           -0.19482515843E-01
     36.751366267           -0.61495071038E-01
      8.5365149464           0.47258065062
      4.1935128599           1.0236065079
  gaussian 1 1 2.0464980417
  gaussian 1 1 0.98000000000
  gaussian 1 1 0.40534340618
  gaussian 1 1 0.16655070471
  gaussian 1 1 0.65981706123E-01
  gaussian 2 7
    479.32599612             0.71722800196E-03
    143.96064855             0.64419223046E-02
     55.548909224            0.31776498964E-01
     23.927581006            0.10276249168
     10.988194172            0.22710952843
      5.1489356262           0.33477474118
      2.3836810892           0.34175986071
  gaussian 2 1 1.0688204667
  gaussian 2 1 0.43305693742
  gaussian 2 1 0.1700000
  gaussian 3 1 0.26400000000
  gaussian 3 1 0.64400000000
  gaussian 4 1 0.54650000000
  
  ################################################################################
  #
  #  FHI-aims code project
  #  VB, Fritz-Haber Institut, 2007
  #
  #  Suggested "safe" defaults for Se atom (to be pasted into control.in file)
  #
  ################################################################################
    species        Se
  #     global species definitions
      nucleus             34
      mass                78.96
  #
      l_hartree           6
  #
      cut_pot             4.0          2.0  1.0
      basis_dep_cutoff    0.d0
  #
      radial_base         55 7.0
      radial_multiplier   6
      angular_grids       specified
        division   0.9913  194
        division   1.1593  302
        division   1.3908  434
        division   1.4959  590
        outer_grid  770
  
  ################################################################################
  #
  #  Definition of "minimal" basis
  #
  ################################################################################
  #     valence basis states
      valence      4  s   2.
      valence      4  p   4.
      valence      3  d  10.
  #     ion occupancy
      ion_occ      4  s   1.
      ion_occ      4  p   3.
      ion_occ      3  d  10.
  ################################################################################
  #
  #   For exact comparison with all GTO-based codes, one or more of
  #   the following flags are needed:
  #
      include_min_basis   .false.
      pure_gauss          .true.
  #
  
  
  # Se def2-QZVP
  gaussian 0 11
 9520446.7743000             0.63309690150E-05
 1424984.0802000             0.49267697990E-04
 324127.5768200              0.25920249744E-03
  91774.8769500              0.10943145743E-02
  29932.7257250              0.39706139067E-02
  10804.6179050              0.12801187916E-01
   4214.0134779              0.36980379417E-01
   1747.8116633              0.94461349896E-01
    762.12160878             0.20274705434
    346.45604141             0.32878956424
    163.11569304             0.32300252609
  gaussian 0 4
   2614.5153067              0.79113928518E-02
    818.68552756             0.77187739408E-01
    318.63398991             0.35672061949
    139.04844125             0.75846750004
  gaussian 0 1 78.348734788
  gaussian 0 1 31.704290663
  gaussian 0 1 15.505859269
  gaussian 0 1 7.3227423625
  gaussian 0 1 3.4969483549
  gaussian 0 1 1.6121546085
  gaussian 0 1 0.49587158541
  gaussian 0 1 0.24092138175
  gaussian 0 1 0.10231739397
  gaussian 1 10
  25360.2156150              0.60531790911E-04
   5993.7896610              0.53987774437E-03
   1943.0741755              0.31130456170E-02
    742.35316156             0.13599674694E-01
    314.62114597             0.47298958377E-01
    143.34748044             0.12981487726
     68.673617552            0.26569982215
     34.013554117            0.36723195311
     17.198099621            0.27478356345
      8.5830329629           0.79256169683E-01
  gaussian 1 5
    236.58209146            -0.12271649354E-02
     90.576183214           -0.92584627774E-02
     39.086689301           -0.28428728384E-01
      9.3084344018           0.21201102192
      4.6169923084           0.47117589805
  gaussian 1 1 2.2653477506
  gaussian 1 1 1.0800000000
  gaussian 1 1 0.47939328581
  gaussian 1 1 0.19619983845
  gaussian 1 1 0.76256339275E-01
  gaussian 2 7
    539.48700124             0.66722955533E-03
    162.13394435             0.60399330928E-02
     62.661795641            0.30238666507E-01
     27.077272889            0.99267892065E-01
     12.483003929            0.22358036310
      5.8864623136           0.33574682762
      2.7519131105           0.34554856483
  gaussian 2 1 1.2500769617
  gaussian 2 1 0.51172841843
  gaussian 2 1 0.2000000
  gaussian 3 1 0.28400000000
  gaussian 3 1 0.70970000000
  gaussian 4 1 0.57300000000
  
  
  
  
  ################################################################################
  #
  #  FHI-aims code project
  #  VB, Fritz-Haber Institut, 2007
  #
  #  Suggested "safe" defaults for Br atom (to be pasted into control.in file)
  #
  ################################################################################
    species        Br
  #     global species definitions
      nucleus             35
      mass                79.904
  #
      l_hartree           6
  #
      cut_pot             4.0   2.0  1.0
      basis_dep_cutoff    0.d0
  #
      radial_base         56 7.0
      radial_multiplier   6
      angular_grids       specified
        division   0.9869  194
        division   1.1684  302
        division   1.3643  434
        division   1.5935  590
        outer_grid  770
  
  ################################################################################
  #
  #  Definition of "minimal" basis
  #
  ################################################################################
  #     valence basis states
      valence      4  s   2.
      valence      4  p   5.
      valence      3  d  10.
  #     ion occupancy
      ion_occ      4  s   1.
      ion_occ      4  p   4.
      ion_occ      3  d  10.
  ################################################################################
  #
  #   For exact comparison with all GTO-based codes, one or more of
  #   the following flags are needed:
  #
      include_min_basis   .false.
      pure_gauss          .true.
  #
  
  
  # Br def2-QZVP
  gaussian 0 11
 10629044.2640000            0.59322104325E-05
 1591918.2739000             0.46118980689E-04
 362333.9843700              0.24244612378E-03
 102643.1114100              0.10231422748E-02
  33489.8466680              0.37121984175E-02
  12091.2471900              0.11978107933E-01
   4716.1908789              0.34682692842E-01
   1956.1598080              0.89068331264E-01
    853.08595848             0.19330124567
    387.96633666             0.32071144956
    182.85156613             0.32996797574
  gaussian 0 4
   3240.4086421              0.65905194070E-02
   1000.4631935              0.68439609656E-01
    383.37301682             0.34495478668
    166.03929698             0.82315542085
  gaussian 0 1 87.919906994
  gaussian 0 1 35.675840068
  gaussian 0 1 17.543657842
  gaussian 0 1 8.4473660433
  gaussian 0 1 3.9666180616
  gaussian 0 1 1.8356815987
  gaussian 0 1 0.59084778776
  gaussian 0 1 0.28863218421
  gaussian 0 1 0.12153380537
  gaussian 1 10
  26566.4765790              0.62073657410E-04
   6290.5088566              0.55131636217E-03
   2043.3178410              0.31680110980E-02
    781.67221007             0.13816597290E-01
    331.51078945             0.48018539681E-01
    151.09198667             0.13162015183
     72.395278166            0.26860052203
     35.869510844            0.36827391093
     18.139906191            0.27108612944
      9.0466688944           0.76215338633E-01
  gaussian 1 5
    253.71822146            -0.13729169381E-02
     97.250818058           -0.10393811185E-01
     42.034897960           -0.32204214612E-01
      9.9685673555           0.24224770086
      4.9395854745           0.53557868398
  gaussian 1 1 2.4382845475
  gaussian 1 1 1.1800000000
  gaussian 1 1 0.51047564965
  gaussian 1 1 0.21215851928
  gaussian 1 1 0.83943604990E-01
  gaussian 2 7
    601.44434484             0.62783723765E-03
    180.85718640             0.57205157153E-02
     69.986806340            0.29002521527E-01
     30.324710300            0.96446989766E-01
     14.027909238            0.22065825870
      6.6511702082           0.33657642375
      3.1354168338           0.34872040582
  gaussian 2 1 1.4393591843
  gaussian 2 1 0.59350441438
  gaussian 2 1 0.2300000
  gaussian 3 1 0.34070000000
  gaussian 3 1 0.82570000000
  gaussian 4 1 0.64910000000
  
  -----------------------------------------------------------------------
  Completed first pass over input file control.in .
  -----------------------------------------------------------------------
  
  
  -----------------------------------------------------------------------
  Parsing geometry.in (first pass over file, find array dimensions only).
  The contents of geometry.in will be repeated verbatim below
  unless switched off by setting 'verbatim_writeout .false.' .
  in the first line of geometry.in .
  -----------------------------------------------------------------------
  
  atom 20.49707753 27.94709509 28.34341204 O
  atom 20.43398141 27.03361763 28.02347242 H
  atom 21.50597786 27.99193426 29.35122028 C
  atom 21.42346433 28.98240092 29.81478216 H
  atom 21.33495866 27.23395632 30.13402763 H
  atom 25.85429514 24.83888919 32.15173435 H
  atom 25.51880127 29.37440681 29.11880266 O
  atom 22.90798794 27.79135398 28.74875399 C
  atom 26.13782886 28.69372785 28.80729994 H
  atom 23.15634073 28.62110570 28.07385017 H
  atom 22.91034362 26.86060432 28.16125294 H
  atom 24.23730294 31.29889720 29.18861775 H
  atom 23.73759900 25.38359179 30.10318630 O
  atom 23.95696114 27.66733601 29.74286055 N
  atom 24.78235058 28.80202632 30.19914002 C
  atom 25.69274635 28.11609880 31.20753719 C
  atom 26.70867636 28.66809340 31.97746941 C
  atom 27.42585628 27.81318277 32.82188255 C
  atom 27.12611581 26.44602545 32.89083657 C
  atom 26.10298352 25.89911573 32.11212692 C
  atom 25.39806528 26.75600721 31.27321276 C
  atom 24.27903828 26.45854040 30.33440193 C
  atom 23.91820502 29.90821322 30.79875594 C
  atom 23.72182538 31.11826502 30.12910681 C
  atom 22.86564686 32.08392392 30.66402722 C
  atom 22.20657654 31.85081570 31.87031502 C
  atom 22.40882793 30.64472981 32.54644816 C
  atom 23.25891487 29.67943786 32.01316396 C
  atom 26.93671707 29.73273047 31.92875892 H
  atom 27.69887321 25.80544496 33.56112100 H
  atom 22.71420400 33.02256704 30.13107430 H
  atom 21.53839932 32.60526516 32.28504011 H
  atom 21.90053770 30.45482880 33.49157947 H
  atom 23.40568543 28.73617299 32.54015798 H
  atom 28.22821198 28.21698900 33.43926034 H
  
  -----------------------------------------------------------------------
  Completed first pass over input file geometry.in .
  -----------------------------------------------------------------------
  

  Basic array size parameters:
  | Number of species                 :       14
  | Number of atoms                   :       35
  | Max. basis fn. angular momentum   :        4
  | Max. atomic/ionic basis occupied n:        4
  | Max. number of basis fn. types    :        1
  | Max. radial fns per species/type  :       33
  | Max. logarithmic grid size        :     1421
  | Max. radial integration grid size :      341
  | Max. angular integration grid size:      770
  | Max. angular grid division number :        8
  | Radial grid for Hartree potential :     1421
  | Number of spin channels           :        1

------------------------------------------------------------
          Reading file control.in.
------------------------------------------------------------
  GW quasiparticle calculation of excited states will be started after the DFT/HF calculation.
  XC: Using hybrid-PBE0 functionals.
 The 'V' version of RI (resolution of identity) technique is used.
  Scalar relativistic treatment of kinetic energy: on-site free-atom approximation to ZORA.
  Using Pade approximation for analytical continuation.
  Number of frequency points used for the self-energy calculation:    200
  Number of fitting parameters for analytical continuation :     16
  Occupation type: Gaussian broadening, width =   0.100000E-03 eV.
  Using pulay charge density mixing.
  Pulay mixing - number of memorized iterations:   10
  Charge density mixing - mixing parameter:     0.2000
  Convergence accuracy of self-consistent charge density:  0.1000E-05
  Convergence accuracy of sum of eigenvalues:  0.1000E-03
  Convergence accuracy of total energy:  0.1000E-05
  Maximum number of s.-c. iterations  :   100
  Threshold for auxiliary basis singularities:  0.1000E-03
  override_illconditioning: Explicitly overriding any built-in checks for an ill-conditioned overlap matrix.
  *** WARNING: If you use this flag, you should really know what you are doing.
  *** DO NOT keep this flag set by default in all your control.in files.
 
  Reading configuration options for species H                   .
  | Found nuclear charge :   1.0000
  | Found atomic mass :    1.00794000000000      amu
  | Found l_max for Hartree potential  :   6
  | Found cutoff potl. onset [A], width [A], scale factor :    4.00000    2.00000    1.00000
  | Threshold for basis-dependent cutoff potential is   0.000000E+00
  | Found data for basic radial integration grid :    24 points, outermost radius =    7.000 A
  | Found multiplier for basic radial grid :   6
  | Found angular grid specification: user-specified.
  | Specified grid contains     7 separate shells.
  | Check grid settings after all constraints further below.
  | Found free-atom valence shell :  1 s   1.000
  | No ionic wave fns used. Skipping ion_occ.
  | Found request to include minimal basis fns. :     F
  | Found request to include pure gaussian fns. :     T
  | Found contracted cartesian Gaussian basis function :  L = 0 ,   4 elementary Gaussians:
  |   alpha = 0.190692E+03 weight = 0.708200E-03
  |   alpha = 0.286055E+02 weight = 0.546790E-02
  |   alpha = 0.650959E+01 weight = 0.279666E-01
  |   alpha = 0.184125E+01 weight = 0.107645E+00
  |   In terms of angular momentum, this radial function adds: 
  |     1 s-type basis function
  | Found primitive cartesian Gaussian basis function :  0 0.598537E+00
  |   In terms of angular momentum, this radial function adds: 
  |     1 s-type basis function
  | Found primitive cartesian Gaussian basis function :  0 0.213976E+00
  |   In terms of angular momentum, this radial function adds: 
  |     1 s-type basis function
  | Found primitive cartesian Gaussian basis function :  0 0.803163E-01
  |   In terms of angular momentum, this radial function adds: 
  |     1 s-type basis function
  | Found primitive cartesian Gaussian basis function :  1 0.229200E+01
  |   In terms of angular momentum, this radial function adds: 
  |     3 p-type basis functions
  | Found primitive cartesian Gaussian basis function :  1 0.838000E+00
  |   In terms of angular momentum, this radial function adds: 
  |     3 p-type basis functions
  | Found primitive cartesian Gaussian basis function :  1 0.292000E+00
  |   In terms of angular momentum, this radial function adds: 
  |     3 p-type basis functions
  | Found primitive cartesian Gaussian basis function :  2 0.206200E+01
  |   In terms of angular momentum, this radial function adds: 
  |     5 d-type basis functions
  | Found primitive cartesian Gaussian basis function :  2 0.662000E+00
  |   In terms of angular momentum, this radial function adds: 
  |     5 d-type basis functions
  | Found primitive cartesian Gaussian basis function :  3 0.139700E+01
  |   In terms of angular momentum, this radial function adds: 
  |     7 f-type basis functions
  Species H                   : Missing cutoff potential type.
  Defaulting to exp(1/x)/(1-x)^2 type cutoff potential.
  Species H : No 'logarithmic' tag. Using default grid for free atom:
  | Default logarithmic grid data [bohr] : 0.1000E-03 0.1000E+03 0.1012E+01
  Species H : On-site basis accuracy parameter (for Gram-Schmidt orthonormalisation) not specified.
  Using default value basis_acc =  0.1000000E-03.
  Species H                   : Using default innermost maximum threshold i_radial=  2 for radial functions.
  Species H                   : Default cutoff onset for free atom density etc. is infinite
  since the product basis is used (hybrid functionals, Hartree-Fock, GW etc.).
  Species H                   : Basic radial grid will be enhanced according to radial_multiplier =   6, to contain   149 grid points.
 
  Reading configuration options for species C                   .
  | Found nuclear charge :   6.0000
  | Found atomic mass :    12.0107000000000      amu
  | Found l_max for Hartree potential  :   6
  | Found cutoff potl. onset [A], width [A], scale factor :    4.00000    2.00000    1.00000
  | Threshold for basis-dependent cutoff potential is   0.000000E+00
  | Found data for basic radial integration grid :    34 points, outermost radius =    7.000 A
  | Found multiplier for basic radial grid :   6
  | Found angular grid specification: user-specified.
  | Specified grid contains     7 separate shells.
  | Check grid settings after all constraints further below.
  | Found free-atom valence shell :  2 s   2.000
  | Found free-atom valence shell :  2 p   2.000
  | No ionic wave fns used. Skipping ion_occ.
  | No ionic wave fns used. Skipping ion_occ.
  | Found request to include minimal basis fns. :     F
  | Found request to include pure gaussian fns. :     T
  | Found contracted cartesian Gaussian basis function :  L = 0 ,   8 elementary Gaussians:
  |   alpha = 0.670251E+05 weight = 0.387000E-04
  |   alpha = 0.100400E+05 weight = 0.301100E-03
  |   alpha = 0.228493E+04 weight = 0.157880E-02
  |   alpha = 0.647141E+03 weight = 0.660870E-02
  |   alpha = 0.211095E+03 weight = 0.233671E-01
  |   alpha = 0.761776E+02 weight = 0.704207E-01
  |   alpha = 0.296338E+02 weight = 0.173603E+00
  |   alpha = 0.121878E+02 weight = 0.322923E+00
  |   In terms of angular momentum, this radial function adds: 
  |     1 s-type basis function
  | Found contracted cartesian Gaussian basis function :  L = 0 ,   2 elementary Gaussians:
  |   alpha = 0.530260E+02 weight = 0.748974E-01
  |   alpha = 0.152585E+02 weight = 0.761362E+00
  |   In terms of angular momentum, this radial function adds: 
  |     1 s-type basis function
  | Found primitive cartesian Gaussian basis function :  0 0.524040E+01
  |   In terms of angular momentum, this radial function adds: 
  |     1 s-type basis function
  | Found primitive cartesian Gaussian basis function :  0 0.229050E+01
  |   In terms of angular momentum, this radial function adds: 
  |     1 s-type basis function
  | Found primitive cartesian Gaussian basis function :  0 0.696733E+00
  |   In terms of angular momentum, this radial function adds: 
  |     1 s-type basis function
  | Found primitive cartesian Gaussian basis function :  0 0.275993E+00
  |   In terms of angular momentum, this radial function adds: 
  |     1 s-type basis function
  | Found primitive cartesian Gaussian basis function :  0 0.107399E+00
  |   In terms of angular momentum, this radial function adds: 
  |     1 s-type basis function
  | Found contracted cartesian Gaussian basis function :  L = 1 ,   5 elementary Gaussians:
  |   alpha = 0.105126E+03 weight = 0.846500E-03
  |   alpha = 0.248845E+02 weight = 0.662740E-02
  |   alpha = 0.786372E+01 weight = 0.301204E-01
  |   alpha = 0.284070E+01 weight = 0.999514E-01
  |   alpha = 0.112271E+01 weight = 0.238263E+00
  |   In terms of angular momentum, this radial function adds: 
  |     3 p-type basis functions
  | Found primitive cartesian Gaussian basis function :  1 0.460507E+00
  |   In terms of angular momentum, this radial function adds: 
  |     3 p-type basis functions
  | Found primitive cartesian Gaussian basis function :  1 0.189375E+00
  |   In terms of angular momentum, this radial function adds: 
  |     3 p-type basis functions
  | Found primitive cartesian Gaussian basis function :  1 0.759838E-01
  |   In terms of angular momentum, this radial function adds: 
  |     3 p-type basis functions
  | Found primitive cartesian Gaussian basis function :  2 0.184800E+01
  |   In terms of angular momentum, this radial function adds: 
  |     5 d-type basis functions
  | Found primitive cartesian Gaussian basis function :  2 0.649000E+00
  |   In terms of angular momentum, this radial function adds: 
  |     5 d-type basis functions
  | Found primitive cartesian Gaussian basis function :  2 0.228000E+00
  |   In terms of angular momentum, this radial function adds: 
  |     5 d-type basis functions
  | Found primitive cartesian Gaussian basis function :  3 0.141900E+01
  |   In terms of angular momentum, this radial function adds: 
  |     7 f-type basis functions
  | Found primitive cartesian Gaussian basis function :  3 0.485000E+00
  |   In terms of angular momentum, this radial function adds: 
  |     7 f-type basis functions
  | Found primitive cartesian Gaussian basis function :  4 0.101100E+01
  |   In terms of angular momentum, this radial function adds: 
  |     9 g-type basis functions
  Species C                   : Missing cutoff potential type.
  Defaulting to exp(1/x)/(1-x)^2 type cutoff potential.
  Species C : No 'logarithmic' tag. Using default grid for free atom:
  | Default logarithmic grid data [bohr] : 0.1000E-03 0.1000E+03 0.1012E+01
  Species C : On-site basis accuracy parameter (for Gram-Schmidt orthonormalisation) not specified.
  Using default value basis_acc =  0.1000000E-03.
  Species C                   : Using default innermost maximum threshold i_radial=  2 for radial functions.
  Species C                   : Default cutoff onset for free atom density etc. is infinite
  since the product basis is used (hybrid functionals, Hartree-Fock, GW etc.).
  Species C                   : Basic radial grid will be enhanced according to radial_multiplier =   6, to contain   209 grid points.
 
  Reading configuration options for species N                   .
  | Found nuclear charge :   7.0000
  | Found atomic mass :    14.0067000000000      amu
  | Found l_max for Hartree potential  :   6
  | Found cutoff potl. onset [A], width [A], scale factor :    4.00000    2.00000    1.00000
  | Threshold for basis-dependent cutoff potential is   0.000000E+00
  | Found data for basic radial integration grid :    35 points, outermost radius =    7.000 A
  | Found multiplier for basic radial grid :   6
  | Found angular grid specification: user-specified.
  | Specified grid contains     7 separate shells.
  | Check grid settings after all constraints further below.
  | Found free-atom valence shell :  2 s   2.000
  | Found free-atom valence shell :  2 p   3.000
  | No ionic wave fns used. Skipping ion_occ.
  | No ionic wave fns used. Skipping ion_occ.
  | Found request to include minimal basis fns. :     F
  | Found request to include pure gaussian fns. :     T
  | Found contracted cartesian Gaussian basis function :  L = 0 ,   8 elementary Gaussians:
  |   alpha = 0.907269E+05 weight = 0.393000E-04
  |   alpha = 0.135905E+05 weight = 0.305100E-03
  |   alpha = 0.309299E+04 weight = 0.160010E-02
  |   alpha = 0.875999E+03 weight = 0.669830E-02
  |   alpha = 0.285745E+03 weight = 0.236901E-01
  |   alpha = 0.103119E+03 weight = 0.714554E-01
  |   alpha = 0.401286E+02 weight = 0.176328E+00
  |   alpha = 0.165281E+02 weight = 0.326776E+00
  |   In terms of angular momentum, this radial function adds: 
  |     1 s-type basis function
  | Found contracted cartesian Gaussian basis function :  L = 0 ,   2 elementary Gaussians:
  |   alpha = 0.693910E+02 weight = 0.800521E-01
  |   alpha = 0.204282E+02 weight = 0.782681E+00
  |   In terms of angular momentum, this radial function adds: 
  |     1 s-type basis function
  | Found primitive cartesian Gaussian basis function :  0 0.712926E+01
  |   In terms of angular momentum, this radial function adds: 
  |     1 s-type basis function
  | Found primitive cartesian Gaussian basis function :  0 0.313243E+01
  |   In terms of angular momentum, this radial function adds: 
  |     1 s-type basis function
  | Found primitive cartesian Gaussian basis function :  0 0.987558E+00
  |   In terms of angular momentum, this radial function adds: 
  |     1 s-type basis function
  | Found primitive cartesian Gaussian basis function :  0 0.387657E+00
  |   In terms of angular momentum, this radial function adds: 
  |     1 s-type basis function
  | Found primitive cartesian Gaussian basis function :  0 0.149099E+00
  |   In terms of angular momentum, this radial function adds: 
  |     1 s-type basis function
  | Found contracted cartesian Gaussian basis function :  L = 1 ,   5 elementary Gaussians:
  |   alpha = 0.150057E+03 weight = -.862200E-03
  |   alpha = 0.354916E+02 weight = -.685710E-02
  |   alpha = 0.112479E+02 weight = -.317957E-01
  |   alpha = 0.409003E+01 weight = -.105374E+00
  |   alpha = 0.162206E+01 weight = -.245197E+00
  |   In terms of angular momentum, this radial function adds: 
  |     3 p-type basis functions
  | Found primitive cartesian Gaussian basis function :  1 0.664423E+00
  |   In terms of angular momentum, this radial function adds: 
  |     3 p-type basis functions
  | Found primitive cartesian Gaussian basis function :  1 0.270998E+00
  |   In terms of angular momentum, this radial function adds: 
  |     3 p-type basis functions
  | Found primitive cartesian Gaussian basis function :  1 0.106887E+00
  |   In terms of angular momentum, this radial function adds: 
  |     3 p-type basis functions
  | Found primitive cartesian Gaussian basis function :  2 0.283700E+01
  |   In terms of angular momentum, this radial function adds: 
  |     5 d-type basis functions
  | Found primitive cartesian Gaussian basis function :  2 0.968000E+00
  |   In terms of angular momentum, this radial function adds: 
  |     5 d-type basis functions
  | Found primitive cartesian Gaussian basis function :  2 0.335000E+00
  |   In terms of angular momentum, this radial function adds: 
  |     5 d-type basis functions
  | Found primitive cartesian Gaussian basis function :  3 0.202700E+01
  |   In terms of angular momentum, this radial function adds: 
  |     7 f-type basis functions
  | Found primitive cartesian Gaussian basis function :  3 0.685000E+00
  |   In terms of angular momentum, this radial function adds: 
  |     7 f-type basis functions
  | Found primitive cartesian Gaussian basis function :  4 0.142700E+01
  |   In terms of angular momentum, this radial function adds: 
  |     9 g-type basis functions
  Species N                   : Missing cutoff potential type.
  Defaulting to exp(1/x)/(1-x)^2 type cutoff potential.
  Species N : No 'logarithmic' tag. Using default grid for free atom:
  | Default logarithmic grid data [bohr] : 0.1000E-03 0.1000E+03 0.1012E+01
  Species N : On-site basis accuracy parameter (for Gram-Schmidt orthonormalisation) not specified.
  Using default value basis_acc =  0.1000000E-03.
  Species N                   : Using default innermost maximum threshold i_radial=  2 for radial functions.
  Species N                   : Default cutoff onset for free atom density etc. is infinite
  since the product basis is used (hybrid functionals, Hartree-Fock, GW etc.).
  Species N                   : Basic radial grid will be enhanced according to radial_multiplier =   6, to contain   215 grid points.
 
  Reading configuration options for species O                   .
  | Found nuclear charge :   8.0000
  | Found atomic mass :    15.9994000000000      amu
  | Found l_max for Hartree potential  :   6
  | Found cutoff potl. onset [A], width [A], scale factor :    4.00000    2.00000    1.00000
  | Threshold for basis-dependent cutoff potential is   0.000000E+00
  | Found data for basic radial integration grid :    36 points, outermost radius =    7.000 A
  | Found multiplier for basic radial grid :   6
  | Found angular grid specification: user-specified.
  | Specified grid contains     7 separate shells.
  | Check grid settings after all constraints further below.
  | Found free-atom valence shell :  2 s   2.000
  | Found free-atom valence shell :  2 p   4.000
  | No ionic wave fns used. Skipping ion_occ.
  | No ionic wave fns used. Skipping ion_occ.
  | Found request to include minimal basis fns. :     F
  | Found request to include pure gaussian fns. :     T
  | Found contracted cartesian Gaussian basis function :  L = 0 ,   8 elementary Gaussians:
  |   alpha = 0.116506E+06 weight = 0.404000E-04
  |   alpha = 0.175043E+05 weight = 0.312600E-03
  |   alpha = 0.399345E+04 weight = 0.163410E-02
  |   alpha = 0.113301E+04 weight = 0.682830E-02
  |   alpha = 0.369996E+03 weight = 0.241244E-01
  |   alpha = 0.133621E+03 weight = 0.727302E-01
  |   alpha = 0.520356E+02 weight = 0.179344E+00
  |   alpha = 0.214619E+02 weight = 0.330596E+00
  |   In terms of angular momentum, this radial function adds: 
  |     1 s-type basis function
  | Found contracted cartesian Gaussian basis function :  L = 0 ,   2 elementary Gaussians:
  |   alpha = 0.898351E+02 weight = 0.964687E-01
  |   alpha = 0.264280E+02 weight = 0.941175E+00
  |   In terms of angular momentum, this radial function adds: 
  |     1 s-type basis function
  | Found primitive cartesian Gaussian basis function :  0 0.928228E+01
  |   In terms of angular momentum, this radial function adds: 
  |     1 s-type basis function
  | Found primitive cartesian Gaussian basis function :  0 0.409477E+01
  |   In terms of angular momentum, this radial function adds: 
  |     1 s-type basis function
  | Found primitive cartesian Gaussian basis function :  0 0.132553E+01
  |   In terms of angular momentum, this radial function adds: 
  |     1 s-type basis function
  | Found primitive cartesian Gaussian basis function :  0 0.518772E+00
  |   In terms of angular momentum, this radial function adds: 
  |     1 s-type basis function
  | Found primitive cartesian Gaussian basis function :  0 0.197727E+00
  |   In terms of angular momentum, this radial function adds: 
  |     1 s-type basis function
  | Found contracted cartesian Gaussian basis function :  L = 1 ,   5 elementary Gaussians:
  |   alpha = 0.191153E+03 weight = 0.251160E-02
  |   alpha = 0.452334E+02 weight = 0.200392E-01
  |   alpha = 0.143535E+02 weight = 0.936091E-01
  |   alpha = 0.524224E+01 weight = 0.306181E+00
  |   alpha = 0.207924E+01 weight = 0.678105E+00
  |   In terms of angular momentum, this radial function adds: 
[...]
 | i_freq  146            2.390599
 | i_freq  147            2.492424
 | i_freq  148            2.600113
 | i_freq  149            2.714123
 | i_freq  150            2.834958
 | i_freq  151            2.963169
 | i_freq  152            3.099370
 | i_freq  153            3.244234
 | i_freq  154            3.398512
 | i_freq  155            3.563035
 | i_freq  156            3.738727
 | i_freq  157            3.926622
 | i_freq  158            4.127874
 | i_freq  159            4.343777
 | i_freq  160            4.575787
 | i_freq  161            4.825544
 | i_freq  162            5.094902
 | i_freq  163            5.385966
 | i_freq  164            5.701130
 | i_freq  165            6.043126
 | i_freq  166            6.415087
 | i_freq  167            6.820615
 | i_freq  168            7.263872
 | i_freq  169            7.749683
 | i_freq  170            8.283674
 | i_freq  171            8.872428
 | i_freq  172            9.523696
 | i_freq  173           10.246646
 | i_freq  174           11.052196
 | i_freq  175           11.953420
 | i_freq  176           12.966087
 | i_freq  177           14.109356
 | i_freq  178           15.406685
 | i_freq  179           16.887044
 | i_freq  180           18.586551
 | i_freq  181           20.550690
 | i_freq  182           22.837391
 | i_freq  183           25.521346
 | i_freq  184           28.700187
 | i_freq  185           32.503494
 | i_freq  186           37.106206
 | i_freq  187           42.749103
 | i_freq  188           49.770942
 | i_freq  189           58.660500
 | i_freq  190           70.143974
 | i_freq  191           85.338099
 | i_freq  192          106.032192
 | i_freq  193          135.239901
 | i_freq  194          178.361304
 | i_freq  195          245.869090
 | i_freq  196          360.317302
 | i_freq  197          577.921171
 | i_freq  198         1073.293071
 | i_freq  199         2638.240217
 | i_freq  200        13902.153495
 --------------------------------------------
 
  Analytical continuation (Pade approximation) starts...
 
  Quasi particle energy calculation using analytic continuation starts...
 
------------------------------------------------------------------------------------------------------
               GW quasi-particle energy levels
 
               e_qp = e_gs + e_x^ex - e_xc^gs + e_c^nloc
 
  state     occ_num        e_gs        e_x^ex        e_xc^gs        e_c^nloc        e_qp
------------------------------------------------------------------------------------------------------
------------------------------------------------------------------------------------------------------
       1    2.0000     -524.2553      -99.6569      -63.1682       10.4622     -550.2817
       2    2.0000     -523.5083      -99.6506      -63.1661       10.6816     -549.3112
       3    2.0000     -522.8038      -99.6694      -63.1703       10.7738     -548.5292
       4    2.0000     -393.0122      -86.1344      -54.7754       12.7117     -411.6595
       5    2.0000     -281.9074      -72.7518      -46.4416        8.7954     -299.4222
       6    2.0000     -281.4449      -72.7973      -46.4580        8.9042     -298.8800
       7    2.0000     -279.6857      -72.7767      -46.4548        8.9254     -297.0822
       8    2.0000     -279.5288      -72.7855      -46.4601        9.0515     -296.8026
       9    2.0000     -279.4336      -72.8219      -46.4714        9.1193     -296.6648
      10    2.0000     -279.3150      -72.8174      -46.4655        8.5668     -297.1002
      11    2.0000     -279.2992      -72.8140      -46.4714        8.6374     -297.0045
      12    2.0000     -279.2974      -72.8183      -46.4698        8.8352     -296.8107
      13    2.0000     -279.2809      -72.8149      -46.4764        8.9076     -296.7117
      14    2.0000     -279.2780      -72.8119      -46.4684        9.0960     -296.5254
      15    2.0000     -279.2329      -72.8109      -46.4721        8.5468     -297.0248
      16    2.0000     -278.9691      -72.8174      -46.4690        8.6538     -296.6638
      17    2.0000     -278.9364      -72.8163      -46.4683        8.5605     -296.7239
      18    2.0000     -278.9209      -72.8165      -46.4680        8.5681     -296.7013
      19    2.0000     -278.9066      -72.8121      -46.4738        8.6202     -296.6247
      20    2.0000     -278.8885      -72.8126      -46.4751        8.6603     -296.5656
      21    2.0000      -29.7897      -24.0888      -15.7517        6.7999      -31.3270
      22    2.0000      -29.0650      -24.7555      -16.3877        6.9217      -30.5110
      23    2.0000      -28.5437      -24.6499      -16.2631        6.2631      -30.6675
      24    2.0000      -26.6193      -22.6131      -15.1427        6.2399      -27.8499
      25    2.0000      -24.6521      -20.0643      -13.2098        5.8666      -25.6400
      26    2.0000      -24.3199      -19.9421      -13.0863        5.8552      -25.3205
      27    2.0000      -22.4854      -19.4972      -13.2044        5.0627      -23.7155
      28    2.0000      -21.9373      -19.4845      -13.2442        5.0303      -23.1473
      29    2.0000      -21.4411      -19.3160      -13.1494        4.9887      -22.6191
      30    2.0000      -21.1935      -19.2615      -13.0661        4.9626      -22.4263
      31    2.0000      -20.6139      -19.3365      -13.3300        4.3977      -22.2228
      32    2.0000      -19.5049      -19.2097      -13.6387        4.1124      -20.9635
      33    2.0000      -18.5116      -18.5133      -13.1681        3.5579      -20.2989
      34    2.0000      -17.6138      -17.8398      -12.8065        3.6147      -19.0324
      35    2.0000      -17.2593      -17.8698      -12.7935        3.4031      -18.9325
      36    2.0000      -17.2018      -17.8347      -12.8143        3.4536      -18.7686
      37    2.0000      -16.7846      -17.8496      -13.0338        3.2725      -18.3279
      38    2.0000      -16.0464      -17.4109      -12.8254        2.9049      -17.7270
      39    2.0000      -15.4748      -17.0175      -12.6511        2.6313      -17.2100
      40    2.0000      -14.8443      -16.5038      -12.3261        2.4207      -16.6013
      41    2.0000      -14.5337      -16.8598      -12.4830        2.3916      -16.5191
      42    2.0000      -14.2106      -17.0775      -12.8402        2.1416      -16.3063
      43    2.0000      -13.9354      -16.8294      -12.8376        2.1969      -15.7303
      44    2.0000      -13.5670      -16.7062      -12.5521        2.3289      -15.3922
      45    2.0000      -13.2258      -17.1266      -12.9433        2.4304      -14.9787
      46    2.0000      -12.8917      -16.0929      -12.0534        2.0408      -14.8904
      47    2.0000      -12.7852      -16.3505      -12.4755        1.9497      -14.7106
      48    2.0000      -12.6525      -16.9667      -13.1666        2.0111      -14.4415
      49    2.0000      -12.5628      -16.2913      -12.4197        1.8525      -14.5820
      50    2.0000      -12.3144      -17.0997      -13.2415        1.9199      -14.2527
      51    2.0000      -12.0710      -15.8172      -12.0750        1.7484      -14.0648
      52    2.0000      -12.0181      -18.3296      -14.0725        2.4185      -13.8567
      53    2.0000      -11.8522      -16.1998      -12.4972        1.7735      -13.7813
      54    2.0000      -11.4652      -15.2625      -11.7844        1.7472      -13.1961
      55    2.0000      -11.2153      -16.9174      -13.0553        1.8627      -13.2146
      56    2.0000      -10.8359      -14.3425      -11.1586        1.6690      -12.3508
      57    2.0000      -10.7048      -16.2154      -12.6579        1.6359      -12.6264
      58    2.0000      -10.6261      -15.6532      -12.2849        1.6158      -12.3785
      59    2.0000      -10.4327      -15.9281      -12.4702        1.5944      -12.2962
      60    2.0000      -10.3999      -16.0076      -12.5994        1.3867      -12.4214
      61    2.0000       -9.9684      -15.7884      -12.5768        1.2003      -11.9797
      62    2.0000       -9.7979      -16.3420      -12.9573        1.3352      -11.8474
      63    2.0000       -9.4055      -16.5547      -12.8483        1.2648      -11.8472
      64    2.0000       -9.1143      -17.8747      -14.0776        1.9271      -10.9844
      65    2.0000       -8.3135      -18.0707      -14.1421        1.7868      -10.4552
      66    2.0000       -7.8981      -13.4170      -11.3797        0.3946       -9.5408
      67    2.0000       -7.8443      -13.4797      -11.5403        0.3108       -9.4729
      68    2.0000       -7.6558      -16.1859      -13.1983        1.2698       -9.3736
      69    2.0000       -7.5268      -12.3896      -10.6753        0.0362       -9.2048
      70    2.0000       -7.4734      -15.4148      -12.7173        0.9843       -9.1865
      71    2.0000       -6.9589      -14.8494      -12.5977        0.6122       -8.5984
      72    0.0000       -1.4769       -7.1566      -11.0023       -2.5314       -0.1625
      73    0.0000       -0.9497       -6.1301      -10.0895       -2.6591        0.3506
      74    0.0000       -0.6533       -6.1347      -10.0916       -2.6338        0.6698
      75    0.0000       -0.4917       -5.8857       -9.8556       -2.6179        0.8603
      76    0.0000        0.4140       -1.7504       -4.2190       -1.3960        1.4866
      77    0.0000        0.7823       -1.9082       -4.4952       -1.2948        2.0746
      78    0.0000        0.8562       -1.5677       -3.9585       -1.2872        1.9599
      79    0.0000        0.9315       -1.4913       -3.8543       -1.2158        2.0787
      80    0.0000        1.2430       -1.2699       -3.5207       -1.2407        2.2532
      81    0.0000        1.3473       -5.9921      -10.6148       -3.3586        2.6114
------------------------------------------------------------------------------------------------------
 
   DFT/Hartree-Fock HOMO level (eV):    -6.9589   -6.9589
 
   Quasiparticle HOMO level (eV):       -8.5984   -8.5984
 
------------------------------------------------------------------------------------------------------
 
          | Total time for transforming the 3-center integrals :       75.381 s
          | Total time for calculating the exchange-correlation
                                  energy matrix elements   :        3.316 s
          | Total time for calculating polarisability     
                        for imaginary frequencies          :      956.532 s
          | Total time for calculating self energy 
                        on imaginary frequency axis        :     3013.548 s
          | Total time for calculating the quasiparticle 
                  energies with analytic continuation      :        0.000 s
          | Total time for calculating the quasiparticle 
                  energies with contour deformation        :        0.000 s

------------------------------------------------------------------------------
  Final output of selected total energy values:

  The following output summarizes some interesting total energy values
  at the end of a run (AFTER all relaxation, molecular dynamics, etc.).

  | Total energy of the DFT / Hartree-Fock s.c.f. calculation      :         -24469.360408766 eV
  | Final zero-broadening corrected energy (caution - metals only) :         -24469.360408766 eV
  | For reference only, the value of 1 Hartree used in FHI-aims is :             27.211384500 eV

  Before relying on these values, please be sure to understand exactly which
  total energy value is referred to by a given number. Different objects may
  all carry the same name 'total energy'. Definitions:

  Total energy of the DFT / Hartree-Fock s.c.f. calculation:
  | Note that this energy does not include ANY quantities calculated after the
  | s.c.f. cycle, in particular not ANY RPA, MP2, etc. many-body perturbation terms.

  Final zero-broadening corrected energy:
  | For metallic systems only, a broadening of the occupation numbers at the Fermi
  | level can be extrapolated back to zero broadening by an electron-gas inspired
  | formula. For all systems that are not real metals, this value can be
  | meaningless and should be avoided.

------------------------------------------------------------------------------
  Methods described in the following list of references were used in this FHI-aims run.
  If you publish the results, please make sure to cite these reference if they apply.
  FHI-aims is an academic code, and for our developers (often, Ph.D. students
  and postdocs), scientific credit in the community is essential.
  Thank you for helping us!

  For any use of FHI-aims, please cite:

    Volker Blum, Ralf Gehrke, Felix Hanke, Paula Havu, Ville Havu,
    Xinguo Ren, Karsten Reuter, and Matthias Scheffler
    'Ab initio molecular simulations with numeric atom-centered orbitals'
    Computer Physics Communications 180, 2175-2196 (2009)
    http://dx.doi.org/10.1016/j.cpc.2009.06.022


  For Hartree-Fock, hybrid functionals, or many-body perturbation theory used in your run, please cite:

    Xinguo Ren, Patrick Rinke, Volker Blum, Juergen Wieferink, Alex Tkatchenko,
    Andrea Sanfilippo, Karsten Reuter, and Matthias Scheffler,
    'Resolution-of-identity approach to Hartree-Fock, hybrid density functionals,
    RPA, MP2, and GW with numeric atom-centered orbital basis functions'
    New Journal of Physics 14, 053020 (2012).
    http://dx.doi.org/10.1088/1367-2630/14/5/053020


  The scalable eigensolver library ELPA was used in your run.
  ELPA is essential especially for large systems on hundreds or thousands of CPUs.
  For ELPA, please cite:

    Andreas Marek, Volker Blum, Rainer Johanni, Ville Havu, Bruno Lang,
    Thomas Auckenthaler, Alexander Heinecke, Hans-Joachim Bungartz, and Hermann Lederer,
    'The ELPA Library - Scalable Parallel Eigenvalue Solutions
    for Electronic Structure Theory and Computational Science'
    The Journal of Physics: Condensed Matter 26, 213201 (2014).
    http://dx.doi.org/10.1088/0953-8984/26/21/213201


  The ELSI infrastructure was used in your run to solve the Kohn-Sham electronic structure.
  Please check out http://elsi-interchange.org to learn more.
  If scalability is important for your project, please acknowledge ELSI by citing:

    V. W-z. Yu, F. Corsetti, A. Garcia, W. P. Huhn, M. Jacquelin, W. Jia,
    B. Lange, L. Lin, J. Lu, W. Mi, A. Seifitokaldani, A. Vazquez-Mayagoitia,
    C. Yang, H. Yang, and V. Blum
    'ELSI: A unified software interface for Kohn-Sham electronic structure solvers'
    Computer Physics Communications 222, 267-285 (2018).
    http://dx.doi.org/10.1016/j.cpc.2017.09.007


  For the real-space grid partitioning and parallelization used in this calculation, please cite:

    Ville Havu, Volker Blum, Paula Havu, and Matthias Scheffler,
    'Efficient O(N) integration for all-electron electronic structure calculation'
    'using numerically tabulated basis functions'
    Journal of Computational Physics 228, 8367-8379 (2009).
    http://dx.doi.org/10.1016/j.jcp.2009.08.008

  Of course, there are many other important community references, e.g., those cited in the
  above references. Our list is limited to references that describe implementations in the
  FHI-aims code. The reason is purely practical (length of this list) - please credit others as well.

 * Warning - angular integration grids had to be adjusted for use with RI_method 'V'.
 * Background: You are using an electronic structure method that requires RI_method 'V'
 * for the resolution of identity of the Coulomb operator. (See Ren et al.,
 * New J. Phys 2012 for details.) This method requires three-center integrations
 * to be carried out on FHI-aims' normal angular and radial integration grids.
 * (See FHI-aims CPC Blum et al. 2009, p. 2183 for grid details and references.)
 * One of the angular grids specified in your control.in file was not large
 * enough for the maximal angular momenta of orbital and product basis functions
 * for its species.
 * This can lead to atomic total energy errors which cancel in energy differences.
 * Effective Sep 22, 2014, we have changed the default behavior of the code to
 * simply 'upgrade' the angular grids internally to a safe setting in this case.
 * Please be sure to NOT mix total energies from before and after the change.

------------------------------------------------------------
          Leaving FHI-aims.
          Date     :  20180909, Time     :  091211.630

          Computational steps:
          | Number of self-consistency cycles          :           20
          | Number of SCF (re)initializations          :            1

          Detailed time accounting                     :  max(cpu_time)    wall_clock(cpu1)
          | Total time                                 :     7846.358 s        7863.004 s
          | Preparation time                           :        1.208 s           1.211 s
          | Boundary condition initalization           :        0.004 s           0.015 s
          | Grid partitioning                          :        2.452 s           2.458 s
          | Preloading free-atom quantities on grid    :        0.532 s           0.531 s
          | Free-atom superposition energy             :        0.088 s           0.085 s
          | Total time for integrations                :       33.902 s          33.933 s
          | Product basis setup: Total time            :     2203.622 s        2208.261 s
          | Product basis: | 3-center integrations     :(    2131.177 s)  (    2135.670 s)
          | Product basis: | 2-center integrations     :(       1.396 s)  (       1.398 s)
          | Product basis: | 2-center linear algebra   :(       4.824 s)  (       4.832 s)
          | Product basis: | 3-center x 2-center       :(      65.420 s)  (      65.556 s)
          | Total time evaluating exchange matrix      :     1521.411 s        1524.613 s
          | Transforming ovlp_3fn to ovlp_3KS          :       75.381 s          75.522 s
          | Total time for GW calculation              :     4042.129 s        4050.653 s
          | GW self-energy (analytic cont.)            :     3963.348 s        3971.701 s
          | Screened Coulomb matrix W_mn(iw)           :     3962.324 s        3970.672 s
          | Polarisability matrix Pi_PQ(iw)            :      956.532 s         956.532 s
          | Total time for solution of K.-S. equations :        5.772 s           5.753 s
          | Total time for density update              :       22.461 s          22.465 s
          | Total time for mixing                      :        0.316 s           0.270 s
          | Total time for Hartree multipole update    :        0.404 s           0.362 s
          | Total time for Hartree multipole sum       :       11.041 s          11.042 s
          | Total time for total energy evaluation     :        0.072 s           0.015 s
          | Total time for scaled ZORA corrections     :        0.000 s           0.000 s

          Partial memory accounting:
          | Residual value for overall tracked memory usage across tasks :     0.000000 MB (should be 0.000000 MB)
          | Peak values for overall tracked memory usage (after allocating wave):
          |   Minimum:       49.053 MB (on task 88)
          |   Maximum:       49.905 MB (on task 50)
          |   Average:       49.508 MB
          | Largest tracked array allocation (+KS_eigenvector):
          |   Minimum:       20.225 MB (on task  1)
          |   Maximum:       20.225 MB (on task  1)
          |   Average:       20.225 MB
          Note:  These values currently only include a subset of arrays which are explicitly tracked.
          The "true" memory usage will be greater.

          Have a nice day.
------------------------------------------------------------
Application 7489848 resources: utime ~752413s, stime ~857s, Rss ~1328332, inblocks ~1136660, outblocks ~722888
