
                                 *****************
                                 * O   R   C   A *
                                 *****************

           --- An Ab Initio, DFT and Semiempirical electronic structure package ---

                  #######################################################
                  #                        -***-                        #
                  #  Department of molecular theory and spectroscopy    #
                  #              Directorship: Frank Neese              #
                  # Max Planck Institute for Chemical Energy Conversion #
                  #                  D-45470 Muelheim/Ruhr              #
                  #                       Germany                       #
                  #                                                     #
                  #                  All rights reserved                #
                  #                        -***-                        #
                  #######################################################


                         Program Version 3.0.3 - RELEASE   -


 With contributions from (in alphabetic order):
   Ute Becker             : Parallelization
   Dmytro Bykov           : SCF Hessian
   Dmitry Ganyushin       : Spin-Orbit,Spin-Spin,Magnetic field MRCI
   Andreas Hansen         : Spin unrestricted coupled pair/coupled cluster methods
   Dimitrios Liakos       : Extrapolation schemes; parallel MDCI
   Robert Izsak           : Overlap fitted RIJCOSX, COSX-SCS-MP3
   Christian Kollmar      : KDIIS, OOCD, Brueckner-CCSD(T), CCSD density
   Simone Kossmann        : Meta GGA functionals, TD-DFT gradient, OOMP2, MP2 Hessian
   Taras Petrenko         : DFT Hessian,TD-DFT gradient, ASA and ECA modules, normal mode analysis, Resonance Raman, ABS, FL, XAS/XES, NRVS
   Christoph Reimann      : Effective Core Potentials
   Michael Roemelt        : Restricted open shell CIS
   Christoph Riplinger    : Improved optimizer, TS searches, QM/MM, DLPNO-CCSD
   Barbara Sandhoefer     : DKH picture change effects
   Igor Schapiro          : Molecular dynamics
   Kantharuban Sivalingam : CASSCF convergence, NEVPT2
   Boris Wezisla          : Elementary symmetry handling
   Frank Wennmohs         : Technical directorship


 We gratefully acknowledge several colleagues who have allowed us to
 interface, adapt or use parts of their codes:
   Stefan Grimme, W. Hujo, H. Kruse, T. Risthaus : VdW corrections, initial TS optimization,
                                                   DFT functionals, gCP
   Ed Valeev                                     : LibInt (2-el integral package), F12 methods
   Garnet Chan, S. Sharma, R. Olivares           : DMRG
   Ulf Ekstrom                                   : XCFun DFT Library
   Mihaly Kallay                                 : mrcc  (arbitrary order and MRCC methods)
   Andreas Klamt, Michael Diedenhofen            : otool_cosmo (COSMO solvation model)
   Frank Weinhold                                : gennbo (NPA and NBO analysis)
   Christopher J. Cramer and Donald G. Truhlar   : smd solvation model


 Your calculation uses the libint2 library for the computation of 2-el integrals
 For citations please refer to: http://libint.valeyev.net

 This ORCA versions uses:
   CBLAS   interface :  Fast vector & matrix operations
   LAPACKE interface :  Fast linear algebra routines


Your calculation utilizes the basis: cc-VDZ
Cite in your paper:
 H     : T.H. Dunning, Jr. J. Chem. Phys. 90, 1007 (1989).
 He    : D.E. Woon and T.H. Dunning, Jr. J. Chem. Phys. 100, 2975 (1994).
Li - Ne: T.H. Dunning, Jr. J. Chem. Phys. 90, 1007 (1989).
Na - Mg: D.E. Woon and T.H. Dunning, Jr.  (to be published)
Al - Ar: D.E. Woon and T.H. Dunning, Jr.  J. Chem. Phys. 98, 1358 (1993).

Your calculation utilizes polarization functions from the basis: cc-pVDZ
Cite in your paper:
 H     : T.H. Dunning, Jr. J. Chem. Phys. 90, 1007 (1989).
 He    : D.E. Woon and T.H. Dunning, Jr. J. Chem. Phys. 100, 2975 (1994).
Li - Ne: T.H. Dunning, Jr. J. Chem. Phys. 90, 1007 (1989).
Na - Mg: D.E. Woon and T.H. Dunning, Jr.  (to be published)
Al - Ar: D.E. Woon and T.H. Dunning, Jr.  J. Chem. Phys. 98, 1358 (1993).

SCAN-COORDS
================================================================================
                                        WARNINGS
                       Please study these warnings very carefully!
================================================================================
Now building the actual basis set
cite the ECPs for Mg [LANL(10)] as follows:
  P. J. Hay and W. R. Wadt, J. Chem. Phys. 82, 284 (1985).

ECP parameters for Mg [LANL(10)] have been obtained from:
  EMSL Basis Set Library
  Feller, D., J. Comp. Chem., 17(13), 1571-1586, 1996.
  Schuchardt, K.L., Didier, B.T., Elsethagen, T., Sun, L., Gurumoorthi, V., Chase, J., Li, J., and Windus, T.L. J. Chem. Inf. Model., 47(3), 1045-1052, 2007



INFO   : the flag for use of LIBINT has been found!

================================================================================
                                       INPUT FILE
================================================================================
NAME = orca.inp
|  1> # FeMg8O6 - small cluster
|  2> ! UHF cc-pVDZ CCSD(T) TightSCF NOMAYER
|  3> ! KDIIS
|  4> %maxcore 14000
|  5> %pal nprocs 8
|  6> end
|  7> #
|  8> %Coords
|  9> Ctyp   xyz
| 10> Charge 6 # Charge of Mg9O6!
| 11> Mult   5
| 12> Units  Angs
| 13> coords
| 14> # FeMg8O6 Cluster:
| 15> Fe	0.0000000	0.0000000	0.0000000
| 16> O	2.1056141	0.0000000	0.0000000
| 17> O	-2.1056141	0.0000000	0.0000000
| 18> O	0.0000000	2.1056141	0.0000000
| 19> O	0.0000000	-2.1056141	0.0000000
| 20> O	0.0000000	0.0000000	2.1056141
| 21> O	0.0000000	0.0000000	-2.1056141
| 22> Mg	2.1056141	2.1056141	0.0000000
| 23> Mg	2.1056141	-2.1056141	0.0000000
| 24> Mg	-2.1056141	2.1056141	0.0000000
| 25> Mg	-2.1056141	-2.1056141	0.0000000
| 26> Mg	2.1056141	0.0000000	2.1056141
| 27> Mg	2.1056141	0.0000000	-2.1056141
| 28> Mg	-2.1056141	0.0000000	2.1056141
| 29> Mg	-2.1056141	0.0000000	-2.1056141
| 30> # ECPs:
| 31> Mg>	2	0.0000000	2.1056141	2.1056141	NewECP "LANL(10)" end
| 32> Mg>	2	0.0000000	2.1056141	-2.1056141	NewECP "LANL(10)" end
| 33> Mg>	2	0.0000000	-2.1056141	2.1056141	NewECP "LANL(10)" end
| 34> Mg>	2	0.0000000	-2.1056141	-2.1056141	NewECP "LANL(10)" end
| 35> Mg>	2	4.2112282	0.0000000	0.0000000	NewECP "LANL(10)" end
| 36> Mg>	2	-4.2112282	0.0000000	0.0000000	NewECP "LANL(10)" end
| 37> Mg>	2	0.0000000	4.2112282	0.0000000	NewECP "LANL(10)" end
| 38> Mg>	2	0.0000000	-4.2112282	0.0000000	NewECP "LANL(10)" end
| 39> Mg>	2	0.0000000	0.0000000	4.2112282	NewECP "LANL(10)" end
| 40> Mg>	2	0.0000000	0.0000000	-4.2112282	NewECP "LANL(10)" end
| 41> # Point Charges:
| 42> Q	-2	-8.4224564	-6.3168423	-8.4224564
| 43> Q	-2	-8.4224564	-2.1056141	-8.4224564
| 44> Q	-2	-8.4224564	2.1056141	-8.4224564
| 45> Q	-2	-8.4224564	6.3168423	-8.4224564
| 46> Q	-2	-8.4224564	-8.4224564	-6.3168423
| 47> Q	-2	-8.4224564	-4.2112282	-6.3168423
| 48> Q	-2	-8.4224564	0.0000000	-6.3168423
| 49> Q	-2	-8.4224564	4.2112282	-6.3168423
| 50> Q	-2	-8.4224564	8.4224564	-6.3168423
| 51> Q	-2	-8.4224564	-6.3168423	-4.2112282
| 52> Q	-2	-8.4224564	-2.1056141	-4.2112282
| 53> Q	-2	-8.4224564	2.1056141	-4.2112282
| 54> Q	-2	-8.4224564	6.3168423	-4.2112282
| 55> Q	-2	-8.4224564	-8.4224564	-2.1056141
| 56> Q	-2	-8.4224564	-4.2112282	-2.1056141
| 57> Q	-2	-8.4224564	0.0000000	-2.1056141
| 58> Q	-2	-8.4224564	4.2112282	-2.1056141
| 59> Q	-2	-8.4224564	8.4224564	-2.1056141
| 60> Q	-2	-8.4224564	-6.3168423	0.0000000
| 61> Q	-2	-8.4224564	-2.1056141	0.0000000
| 62> Q	-2	-8.4224564	2.1056141	0.0000000
| 63> Q	-2	-8.4224564	6.3168423	0.0000000
| 64> Q	-2	-8.4224564	-8.4224564	2.1056141
| 65> Q	-2	-8.4224564	-4.2112282	2.1056141
| 66> Q	-2	-8.4224564	0.0000000	2.1056141
| 67> Q	-2	-8.4224564	4.2112282	2.1056141
| 68> Q	-2	-8.4224564	8.4224564	2.1056141
| 69> Q	-2	-8.4224564	-6.3168423	4.2112282
| 70> Q	-2	-8.4224564	-2.1056141	4.2112282
| 71> Q	-2	-8.4224564	2.1056141	4.2112282
| 72> Q	-2	-8.4224564	6.3168423	4.2112282
| 73> Q	-2	-8.4224564	-8.4224564	6.3168423
| 74> Q	-2	-8.4224564	-4.2112282	6.3168423
| 75> Q	-2	-8.4224564	0.0000000	6.3168423
| 76> Q	-2	-8.4224564	4.2112282	6.3168423
| 77> Q	-2	-8.4224564	8.4224564	6.3168423
| 78> Q	-2	-8.4224564	-6.3168423	8.4224564
| 79> Q	-2	-8.4224564	-2.1056141	8.4224564
| 80> Q	-2	-8.4224564	2.1056141	8.4224564
| 81> Q	-2	-8.4224564	6.3168423	8.4224564
| 82> Q	-2	-6.3168423	-8.4224564	-8.4224564
| 83> Q	-2	-6.3168423	-4.2112282	-8.4224564
| 84> Q	-2	-6.3168423	0.0000000	-8.4224564
| 85> Q	-2	-6.3168423	4.2112282	-8.4224564
| 86> Q	-2	-6.3168423	8.4224564	-8.4224564
| 87> Q	-2	-6.3168423	-6.3168423	-6.3168423
| 88> Q	-2	-6.3168423	-2.1056141	-6.3168423
| 89> Q	-2	-6.3168423	2.1056141	-6.3168423
| 90> Q	-2	-6.3168423	6.3168423	-6.3168423
| 91> Q	-2	-6.3168423	-8.4224564	-4.2112282
| 92> Q	-2	-6.3168423	-4.2112282	-4.2112282
| 93> Q	-2	-6.3168423	0.0000000	-4.2112282
| 94> Q	-2	-6.3168423	4.2112282	-4.2112282
| 95> Q	-2	-6.3168423	8.4224564	-4.2112282
| 96> Q	-2	-6.3168423	-6.3168423	-2.1056141
| 97> Q	-2	-6.3168423	-2.1056141	-2.1056141
| 98> Q	-2	-6.3168423	2.1056141	-2.1056141
| 99> Q	-2	-6.3168423	6.3168423	-2.1056141
|100> Q	-2	-6.3168423	-8.4224564	0.0000000
|101> Q	-2	-6.3168423	-4.2112282	0.0000000
|102> Q	-2	-6.3168423	0.0000000	0.0000000
|103> Q	-2	-6.3168423	4.2112282	0.0000000
|104> Q	-2	-6.3168423	8.4224564	0.0000000
|105> Q	-2	-6.3168423	-6.3168423	2.1056141
|106> Q	-2	-6.3168423	-2.1056141	2.1056141
|107> Q	-2	-6.3168423	2.1056141	2.1056141
|108> Q	-2	-6.3168423	6.3168423	2.1056141
|109> Q	-2	-6.3168423	-8.4224564	4.2112282
|110> Q	-2	-6.3168423	-4.2112282	4.2112282
|111> Q	-2	-6.3168423	0.0000000	4.2112282
|112> Q	-2	-6.3168423	4.2112282	4.2112282
|113> Q	-2	-6.3168423	8.4224564	4.2112282
|114> Q	-2	-6.3168423	-6.3168423	6.3168423
|115> Q	-2	-6.3168423	-2.1056141	6.3168423
|116> Q	-2	-6.3168423	2.1056141	6.3168423
|117> Q	-2	-6.3168423	6.3168423	6.3168423
|118> Q	-2	-6.3168423	-8.4224564	8.4224564
|119> Q	-2	-6.3168423	-4.2112282	8.4224564
|120> Q	-2	-6.3168423	0.0000000	8.4224564
|121> Q	-2	-6.3168423	4.2112282	8.4224564
|122> Q	-2	-6.3168423	8.4224564	8.4224564
|123> Q	-2	-4.2112282	-6.3168423	-8.4224564
|124> Q	-2	-4.2112282	-2.1056141	-8.4224564
|125> Q	-2	-4.2112282	2.1056141	-8.4224564
|126> Q	-2	-4.2112282	6.3168423	-8.4224564
|127> Q	-2	-4.2112282	-8.4224564	-6.3168423
|128> Q	-2	-4.2112282	-4.2112282	-6.3168423
|129> Q	-2	-4.2112282	0.0000000	-6.3168423
|130> Q	-2	-4.2112282	4.2112282	-6.3168423
|131> Q	-2	-4.2112282	8.4224564	-6.3168423
|132> Q	-2	-4.2112282	-6.3168423	-4.2112282
|133> Q	-2	-4.2112282	-2.1056141	-4.2112282
|134> Q	-2	-4.2112282	2.1056141	-4.2112282
|135> Q	-2	-4.2112282	6.3168423	-4.2112282
|136> Q	-2	-4.2112282	-8.4224564	-2.1056141
|137> Q	-2	-4.2112282	-4.2112282	-2.1056141
|138> Q	-2	-4.2112282	0.0000000	-2.1056141
|139> Q	-2	-4.2112282	4.2112282	-2.1056141
|140> Q	-2	-4.2112282	8.4224564	-2.1056141
|141> Q	-2	-4.2112282	-6.3168423	0.0000000
|142> Q	-2	-4.2112282	-2.1056141	0.0000000
|143> Q	-2	-4.2112282	2.1056141	0.0000000
|144> Q	-2	-4.2112282	6.3168423	0.0000000
|145> Q	-2	-4.2112282	-8.4224564	2.1056141
|146> Q	-2	-4.2112282	-4.2112282	2.1056141
|147> Q	-2	-4.2112282	0.0000000	2.1056141
|148> Q	-2	-4.2112282	4.2112282	2.1056141
|149> Q	-2	-4.2112282	8.4224564	2.1056141
|150> Q	-2	-4.2112282	-6.3168423	4.2112282
|151> Q	-2	-4.2112282	-2.1056141	4.2112282
|152> Q	-2	-4.2112282	2.1056141	4.2112282
|153> Q	-2	-4.2112282	6.3168423	4.2112282
|154> Q	-2	-4.2112282	-8.4224564	6.3168423
|155> Q	-2	-4.2112282	-4.2112282	6.3168423
|156> Q	-2	-4.2112282	0.0000000	6.3168423
|157> Q	-2	-4.2112282	4.2112282	6.3168423
|158> Q	-2	-4.2112282	8.4224564	6.3168423
|159> Q	-2	-4.2112282	-6.3168423	8.4224564
|160> Q	-2	-4.2112282	-2.1056141	8.4224564
|161> Q	-2	-4.2112282	2.1056141	8.4224564
|162> Q	-2	-4.2112282	6.3168423	8.4224564
|163> Q	-2	-2.1056141	-8.4224564	-8.4224564
|164> Q	-2	-2.1056141	-4.2112282	-8.4224564
|165> Q	-2	-2.1056141	0.0000000	-8.4224564
|166> Q	-2	-2.1056141	4.2112282	-8.4224564
|167> Q	-2	-2.1056141	8.4224564	-8.4224564
|168> Q	-2	-2.1056141	-6.3168423	-6.3168423
|169> Q	-2	-2.1056141	-2.1056141	-6.3168423
|170> Q	-2	-2.1056141	2.1056141	-6.3168423
|171> Q	-2	-2.1056141	6.3168423	-6.3168423
|172> Q	-2	-2.1056141	-8.4224564	-4.2112282
|173> Q	-2	-2.1056141	-4.2112282	-4.2112282
|174> Q	-2	-2.1056141	0.0000000	-4.2112282
|175> Q	-2	-2.1056141	4.2112282	-4.2112282
|176> Q	-2	-2.1056141	8.4224564	-4.2112282
|177> Q	-2	-2.1056141	-6.3168423	-2.1056141
|178> Q	-2	-2.1056141	-2.1056141	-2.1056141
|179> Q	-2	-2.1056141	2.1056141	-2.1056141
|180> Q	-2	-2.1056141	6.3168423	-2.1056141
|181> Q	-2	-2.1056141	-8.4224564	0.0000000
|182> Q	-2	-2.1056141	-4.2112282	0.0000000
|183> Q	-2	-2.1056141	4.2112282	0.0000000
|184> Q	-2	-2.1056141	8.4224564	0.0000000
|185> Q	-2	-2.1056141	-6.3168423	2.1056141
|186> Q	-2	-2.1056141	-2.1056141	2.1056141
|187> Q	-2	-2.1056141	2.1056141	2.1056141
|188> Q	-2	-2.1056141	6.3168423	2.1056141
|189> Q	-2	-2.1056141	-8.4224564	4.2112282
|190> Q	-2	-2.1056141	-4.2112282	4.2112282
|191> Q	-2	-2.1056141	0.0000000	4.2112282
|192> Q	-2	-2.1056141	4.2112282	4.2112282
|193> Q	-2	-2.1056141	8.4224564	4.2112282
|194> Q	-2	-2.1056141	-6.3168423	6.3168423
|195> Q	-2	-2.1056141	-2.1056141	6.3168423
|196> Q	-2	-2.1056141	2.1056141	6.3168423
|197> Q	-2	-2.1056141	6.3168423	6.3168423
|198> Q	-2	-2.1056141	-8.4224564	8.4224564
|199> Q	-2	-2.1056141	-4.2112282	8.4224564
|200> Q	-2	-2.1056141	0.0000000	8.4224564
|201> Q	-2	-2.1056141	4.2112282	8.4224564
|202> Q	-2	-2.1056141	8.4224564	8.4224564
|203> Q	-2	0.0000000	-6.3168423	-8.4224564
|204> Q	-2	0.0000000	-2.1056141	-8.4224564
|205> Q	-2	0.0000000	2.1056141	-8.4224564
|206> Q	-2	0.0000000	6.3168423	-8.4224564
|207> Q	-2	0.0000000	-8.4224564	-6.3168423
|208> Q	-2	0.0000000	-4.2112282	-6.3168423
|209> Q	-2	0.0000000	0.0000000	-6.3168423
|210> Q	-2	0.0000000	4.2112282	-6.3168423
|211> Q	-2	0.0000000	8.4224564	-6.3168423
|212> Q	-2	0.0000000	-6.3168423	-4.2112282
|213> Q	-2	0.0000000	-2.1056141	-4.2112282
|214> Q	-2	0.0000000	2.1056141	-4.2112282
|215> Q	-2	0.0000000	6.3168423	-4.2112282
|216> Q	-2	0.0000000	-8.4224564	-2.1056141
|217> Q	-2	0.0000000	-4.2112282	-2.1056141
|218> Q	-2	0.0000000	4.2112282	-2.1056141
|219> Q	-2	0.0000000	8.4224564	-2.1056141
|220> Q	-2	0.0000000	-6.3168423	0.0000000
|221> Q	-2	0.0000000	6.3168423	0.0000000
|222> Q	-2	0.0000000	-8.4224564	2.1056141
|223> Q	-2	0.0000000	-4.2112282	2.1056141
|224> Q	-2	0.0000000	4.2112282	2.1056141
|225> Q	-2	0.0000000	8.4224564	2.1056141
|226> Q	-2	0.0000000	-6.3168423	4.2112282
|227> Q	-2	0.0000000	-2.1056141	4.2112282
|228> Q	-2	0.0000000	2.1056141	4.2112282
|229> Q	-2	0.0000000	6.3168423	4.2112282
|230> Q	-2	0.0000000	-8.4224564	6.3168423
|231> Q	-2	0.0000000	-4.2112282	6.3168423
|232> Q	-2	0.0000000	0.0000000	6.3168423
|233> Q	-2	0.0000000	4.2112282	6.3168423
|234> Q	-2	0.0000000	8.4224564	6.3168423
|235> Q	-2	0.0000000	-6.3168423	8.4224564
|236> Q	-2	0.0000000	-2.1056141	8.4224564
|237> Q	-2	0.0000000	2.1056141	8.4224564
|238> Q	-2	0.0000000	6.3168423	8.4224564
|239> Q	-2	2.1056141	-8.4224564	-8.4224564
|240> Q	-2	2.1056141	-4.2112282	-8.4224564
|241> Q	-2	2.1056141	0.0000000	-8.4224564
|242> Q	-2	2.1056141	4.2112282	-8.4224564
|243> Q	-2	2.1056141	8.4224564	-8.4224564
|244> Q	-2	2.1056141	-6.3168423	-6.3168423
|245> Q	-2	2.1056141	-2.1056141	-6.3168423
|246> Q	-2	2.1056141	2.1056141	-6.3168423
|247> Q	-2	2.1056141	6.3168423	-6.3168423
|248> Q	-2	2.1056141	-8.4224564	-4.2112282
|249> Q	-2	2.1056141	-4.2112282	-4.2112282
|250> Q	-2	2.1056141	0.0000000	-4.2112282
|251> Q	-2	2.1056141	4.2112282	-4.2112282
|252> Q	-2	2.1056141	8.4224564	-4.2112282
|253> Q	-2	2.1056141	-6.3168423	-2.1056141
|254> Q	-2	2.1056141	-2.1056141	-2.1056141
|255> Q	-2	2.1056141	2.1056141	-2.1056141
|256> Q	-2	2.1056141	6.3168423	-2.1056141
|257> Q	-2	2.1056141	-8.4224564	0.0000000
|258> Q	-2	2.1056141	-4.2112282	0.0000000
|259> Q	-2	2.1056141	4.2112282	0.0000000
|260> Q	-2	2.1056141	8.4224564	0.0000000
|261> Q	-2	2.1056141	-6.3168423	2.1056141
|262> Q	-2	2.1056141	-2.1056141	2.1056141
|263> Q	-2	2.1056141	2.1056141	2.1056141
|264> Q	-2	2.1056141	6.3168423	2.1056141
|265> Q	-2	2.1056141	-8.4224564	4.2112282
|266> Q	-2	2.1056141	-4.2112282	4.2112282
|267> Q	-2	2.1056141	0.0000000	4.2112282
|268> Q	-2	2.1056141	4.2112282	4.2112282
|269> Q	-2	2.1056141	8.4224564	4.2112282
|270> Q	-2	2.1056141	-6.3168423	6.3168423
|271> Q	-2	2.1056141	-2.1056141	6.3168423
|272> Q	-2	2.1056141	2.1056141	6.3168423
|273> Q	-2	2.1056141	6.3168423	6.3168423
|274> Q	-2	2.1056141	-8.4224564	8.4224564
|275> Q	-2	2.1056141	-4.2112282	8.4224564
|276> Q	-2	2.1056141	0.0000000	8.4224564
|277> Q	-2	2.1056141	4.2112282	8.4224564
|278> Q	-2	2.1056141	8.4224564	8.4224564
|279> Q	-2	4.2112282	-6.3168423	-8.4224564
|280> Q	-2	4.2112282	-2.1056141	-8.4224564
|281> Q	-2	4.2112282	2.1056141	-8.4224564
|282> Q	-2	4.2112282	6.3168423	-8.4224564
|283> Q	-2	4.2112282	-8.4224564	-6.3168423
|284> Q	-2	4.2112282	-4.2112282	-6.3168423
|285> Q	-2	4.2112282	0.0000000	-6.3168423
|286> Q	-2	4.2112282	4.2112282	-6.3168423
|287> Q	-2	4.2112282	8.4224564	-6.3168423
|288> Q	-2	4.2112282	-6.3168423	-4.2112282
|289> Q	-2	4.2112282	-2.1056141	-4.2112282
|290> Q	-2	4.2112282	2.1056141	-4.2112282
|291> Q	-2	4.2112282	6.3168423	-4.2112282
|292> Q	-2	4.2112282	-8.4224564	-2.1056141
|293> Q	-2	4.2112282	-4.2112282	-2.1056141
|294> Q	-2	4.2112282	0.0000000	-2.1056141
|295> Q	-2	4.2112282	4.2112282	-2.1056141
|296> Q	-2	4.2112282	8.4224564	-2.1056141
|297> Q	-2	4.2112282	-6.3168423	0.0000000
|298> Q	-2	4.2112282	-2.1056141	0.0000000
|299> Q	-2	4.2112282	2.1056141	0.0000000
|300> Q	-2	4.2112282	6.3168423	0.0000000
|301> Q	-2	4.2112282	-8.4224564	2.1056141
|302> Q	-2	4.2112282	-4.2112282	2.1056141
|303> Q	-2	4.2112282	0.0000000	2.1056141
|304> Q	-2	4.2112282	4.2112282	2.1056141
|305> Q	-2	4.2112282	8.4224564	2.1056141
|306> Q	-2	4.2112282	-6.3168423	4.2112282
|307> Q	-2	4.2112282	-2.1056141	4.2112282
|308> Q	-2	4.2112282	2.1056141	4.2112282
|309> Q	-2	4.2112282	6.3168423	4.2112282
|310> Q	-2	4.2112282	-8.4224564	6.3168423
|311> Q	-2	4.2112282	-4.2112282	6.3168423
|312> Q	-2	4.2112282	0.0000000	6.3168423
|313> Q	-2	4.2112282	4.2112282	6.3168423
|314> Q	-2	4.2112282	8.4224564	6.3168423
|315> Q	-2	4.2112282	-6.3168423	8.4224564
|316> Q	-2	4.2112282	-2.1056141	8.4224564
|317> Q	-2	4.2112282	2.1056141	8.4224564
|318> Q	-2	4.2112282	6.3168423	8.4224564
|319> Q	-2	6.3168423	-8.4224564	-8.4224564
|320> Q	-2	6.3168423	-4.2112282	-8.4224564
|321> Q	-2	6.3168423	0.0000000	-8.4224564
|322> Q	-2	6.3168423	4.2112282	-8.4224564
|323> Q	-2	6.3168423	8.4224564	-8.4224564
|324> Q	-2	6.3168423	-6.3168423	-6.3168423
|325> Q	-2	6.3168423	-2.1056141	-6.3168423
|326> Q	-2	6.3168423	2.1056141	-6.3168423
|327> Q	-2	6.3168423	6.3168423	-6.3168423
|328> Q	-2	6.3168423	-8.4224564	-4.2112282
|329> Q	-2	6.3168423	-4.2112282	-4.2112282
|330> Q	-2	6.3168423	0.0000000	-4.2112282
|331> Q	-2	6.3168423	4.2112282	-4.2112282
|332> Q	-2	6.3168423	8.4224564	-4.2112282
|333> Q	-2	6.3168423	-6.3168423	-2.1056141
|334> Q	-2	6.3168423	-2.1056141	-2.1056141
|335> Q	-2	6.3168423	2.1056141	-2.1056141
|336> Q	-2	6.3168423	6.3168423	-2.1056141
|337> Q	-2	6.3168423	-8.4224564	0.0000000
|338> Q	-2	6.3168423	-4.2112282	0.0000000
|339> Q	-2	6.3168423	0.0000000	0.0000000
|340> Q	-2	6.3168423	4.2112282	0.0000000
|341> Q	-2	6.3168423	8.4224564	0.0000000
|342> Q	-2	6.3168423	-6.3168423	2.1056141
|343> Q	-2	6.3168423	-2.1056141	2.1056141
|344> Q	-2	6.3168423	2.1056141	2.1056141
|345> Q	-2	6.3168423	6.3168423	2.1056141
|346> Q	-2	6.3168423	-8.4224564	4.2112282
|347> Q	-2	6.3168423	-4.2112282	4.2112282
|348> Q	-2	6.3168423	0.0000000	4.2112282
|349> Q	-2	6.3168423	4.2112282	4.2112282
|350> Q	-2	6.3168423	8.4224564	4.2112282
|351> Q	-2	6.3168423	-6.3168423	6.3168423
|352> Q	-2	6.3168423	-2.1056141	6.3168423
|353> Q	-2	6.3168423	2.1056141	6.3168423
|354> Q	-2	6.3168423	6.3168423	6.3168423
|355> Q	-2	6.3168423	-8.4224564	8.4224564
|356> Q	-2	6.3168423	-4.2112282	8.4224564
|357> Q	-2	6.3168423	0.0000000	8.4224564
|358> Q	-2	6.3168423	4.2112282	8.4224564
|359> Q	-2	6.3168423	8.4224564	8.4224564
|360> Q	-2	8.4224564	-6.3168423	-8.4224564
|361> Q	-2	8.4224564	-2.1056141	-8.4224564
|362> Q	-2	8.4224564	2.1056141	-8.4224564
|363> Q	-2	8.4224564	6.3168423	-8.4224564
|364> Q	-2	8.4224564	-8.4224564	-6.3168423
|365> Q	-2	8.4224564	-4.2112282	-6.3168423
|366> Q	-2	8.4224564	0.0000000	-6.3168423
|367> Q	-2	8.4224564	4.2112282	-6.3168423
|368> Q	-2	8.4224564	8.4224564	-6.3168423
|369> Q	-2	8.4224564	-6.3168423	-4.2112282
|370> Q	-2	8.4224564	-2.1056141	-4.2112282
|371> Q	-2	8.4224564	2.1056141	-4.2112282
|372> Q	-2	8.4224564	6.3168423	-4.2112282
|373> Q	-2	8.4224564	-8.4224564	-2.1056141
|374> Q	-2	8.4224564	-4.2112282	-2.1056141
|375> Q	-2	8.4224564	0.0000000	-2.1056141
|376> Q	-2	8.4224564	4.2112282	-2.1056141
|377> Q	-2	8.4224564	8.4224564	-2.1056141
|378> Q	-2	8.4224564	-6.3168423	0.0000000
|379> Q	-2	8.4224564	-2.1056141	0.0000000
|380> Q	-2	8.4224564	2.1056141	0.0000000
|381> Q	-2	8.4224564	6.3168423	0.0000000
|382> Q	-2	8.4224564	-8.4224564	2.1056141
|383> Q	-2	8.4224564	-4.2112282	2.1056141
|384> Q	-2	8.4224564	0.0000000	2.1056141
|385> Q	-2	8.4224564	4.2112282	2.1056141
|386> Q	-2	8.4224564	8.4224564	2.1056141
|387> Q	-2	8.4224564	-6.3168423	4.2112282
|388> Q	-2	8.4224564	-2.1056141	4.2112282
|389> Q	-2	8.4224564	2.1056141	4.2112282
|390> Q	-2	8.4224564	6.3168423	4.2112282
|391> Q	-2	8.4224564	-8.4224564	6.3168423
|392> Q	-2	8.4224564	-4.2112282	6.3168423
|393> Q	-2	8.4224564	0.0000000	6.3168423
|394> Q	-2	8.4224564	4.2112282	6.3168423
|395> Q	-2	8.4224564	8.4224564	6.3168423
|396> Q	-2	8.4224564	-6.3168423	8.4224564
|397> Q	-2	8.4224564	-2.1056141	8.4224564
|398> Q	-2	8.4224564	2.1056141	8.4224564
|399> Q	-2	8.4224564	6.3168423	8.4224564
|400> Q	2	-8.4224564	-8.4224564	-8.4224564
|401> Q	2	-8.4224564	-4.2112282	-8.4224564
|402> Q	2	-8.4224564	0.0000000	-8.4224564
|403> Q	2	-8.4224564	4.2112282	-8.4224564
|404> Q	2	-8.4224564	8.4224564	-8.4224564
|405> Q	2	-8.4224564	-6.3168423	-6.3168423
|406> Q	2	-8.4224564	-2.1056141	-6.3168423
|407> Q	2	-8.4224564	2.1056141	-6.3168423
|408> Q	2	-8.4224564	6.3168423	-6.3168423
|409> Q	2	-8.4224564	-8.4224564	-4.2112282
|410> Q	2	-8.4224564	-4.2112282	-4.2112282
|411> Q	2	-8.4224564	0.0000000	-4.2112282
|412> Q	2	-8.4224564	4.2112282	-4.2112282
|413> Q	2	-8.4224564	8.4224564	-4.2112282
|414> Q	2	-8.4224564	-6.3168423	-2.1056141
|415> Q	2	-8.4224564	-2.1056141	-2.1056141
|416> Q	2	-8.4224564	2.1056141	-2.1056141
|417> Q	2	-8.4224564	6.3168423	-2.1056141
|418> Q	2	-8.4224564	-8.4224564	0.0000000
|419> Q	2	-8.4224564	-4.2112282	0.0000000
|420> Q	2	-8.4224564	0.0000000	0.0000000
|421> Q	2	-8.4224564	4.2112282	0.0000000
|422> Q	2	-8.4224564	8.4224564	0.0000000
|423> Q	2	-8.4224564	-6.3168423	2.1056141
|424> Q	2	-8.4224564	-2.1056141	2.1056141
|425> Q	2	-8.4224564	2.1056141	2.1056141
|426> Q	2	-8.4224564	6.3168423	2.1056141
|427> Q	2	-8.4224564	-8.4224564	4.2112282
|428> Q	2	-8.4224564	-4.2112282	4.2112282
|429> Q	2	-8.4224564	0.0000000	4.2112282
|430> Q	2	-8.4224564	4.2112282	4.2112282
|431> Q	2	-8.4224564	8.4224564	4.2112282
|432> Q	2	-8.4224564	-6.3168423	6.3168423
|433> Q	2	-8.4224564	-2.1056141	6.3168423
|434> Q	2	-8.4224564	2.1056141	6.3168423
|435> Q	2	-8.4224564	6.3168423	6.3168423
|436> Q	2	-8.4224564	-8.4224564	8.4224564
|437> Q	2	-8.4224564	-4.2112282	8.4224564
|438> Q	2	-8.4224564	0.0000000	8.4224564
|439> Q	2	-8.4224564	4.2112282	8.4224564
|440> Q	2	-8.4224564	8.4224564	8.4224564
|441> Q	2	-6.3168423	-6.3168423	-8.4224564
|442> Q	2	-6.3168423	-2.1056141	-8.4224564
|443> Q	2	-6.3168423	2.1056141	-8.4224564
|444> Q	2	-6.3168423	6.3168423	-8.4224564
|445> Q	2	-6.3168423	-8.4224564	-6.3168423
|446> Q	2	-6.3168423	-4.2112282	-6.3168423
|447> Q	2	-6.3168423	0.0000000	-6.3168423
|448> Q	2	-6.3168423	4.2112282	-6.3168423
|449> Q	2	-6.3168423	8.4224564	-6.3168423
|450> Q	2	-6.3168423	-6.3168423	-4.2112282
|451> Q	2	-6.3168423	-2.1056141	-4.2112282
|452> Q	2	-6.3168423	2.1056141	-4.2112282
|453> Q	2	-6.3168423	6.3168423	-4.2112282
|454> Q	2	-6.3168423	-8.4224564	-2.1056141
|455> Q	2	-6.3168423	-4.2112282	-2.1056141
|456> Q	2	-6.3168423	0.0000000	-2.1056141
|457> Q	2	-6.3168423	4.2112282	-2.1056141
|458> Q	2	-6.3168423	8.4224564	-2.1056141
|459> Q	2	-6.3168423	-6.3168423	0.0000000
|460> Q	2	-6.3168423	-2.1056141	0.0000000
|461> Q	2	-6.3168423	2.1056141	0.0000000
|462> Q	2	-6.3168423	6.3168423	0.0000000
|463> Q	2	-6.3168423	-8.4224564	2.1056141
|464> Q	2	-6.3168423	-4.2112282	2.1056141
|465> Q	2	-6.3168423	0.0000000	2.1056141
|466> Q	2	-6.3168423	4.2112282	2.1056141
|467> Q	2	-6.3168423	8.4224564	2.1056141
|468> Q	2	-6.3168423	-6.3168423	4.2112282
|469> Q	2	-6.3168423	-2.1056141	4.2112282
|470> Q	2	-6.3168423	2.1056141	4.2112282
|471> Q	2	-6.3168423	6.3168423	4.2112282
|472> Q	2	-6.3168423	-8.4224564	6.3168423
|473> Q	2	-6.3168423	-4.2112282	6.3168423
|474> Q	2	-6.3168423	0.0000000	6.3168423
|475> Q	2	-6.3168423	4.2112282	6.3168423
|476> Q	2	-6.3168423	8.4224564	6.3168423
|477> Q	2	-6.3168423	-6.3168423	8.4224564
|478> Q	2	-6.3168423	-2.1056141	8.4224564
|479> Q	2	-6.3168423	2.1056141	8.4224564
|480> Q	2	-6.3168423	6.3168423	8.4224564
|481> Q	2	-4.2112282	-8.4224564	-8.4224564
|482> Q	2	-4.2112282	-4.2112282	-8.4224564
|483> Q	2	-4.2112282	0.0000000	-8.4224564
|484> Q	2	-4.2112282	4.2112282	-8.4224564
|485> Q	2	-4.2112282	8.4224564	-8.4224564
|486> Q	2	-4.2112282	-6.3168423	-6.3168423
|487> Q	2	-4.2112282	-2.1056141	-6.3168423
|488> Q	2	-4.2112282	2.1056141	-6.3168423
|489> Q	2	-4.2112282	6.3168423	-6.3168423
|490> Q	2	-4.2112282	-8.4224564	-4.2112282
|491> Q	2	-4.2112282	-4.2112282	-4.2112282
|492> Q	2	-4.2112282	0.0000000	-4.2112282
|493> Q	2	-4.2112282	4.2112282	-4.2112282
|494> Q	2	-4.2112282	8.4224564	-4.2112282
|495> Q	2	-4.2112282	-6.3168423	-2.1056141
|496> Q	2	-4.2112282	-2.1056141	-2.1056141
|497> Q	2	-4.2112282	2.1056141	-2.1056141
|498> Q	2	-4.2112282	6.3168423	-2.1056141
|499> Q	2	-4.2112282	-8.4224564	0.0000000
|500> Q	2	-4.2112282	-4.2112282	0.0000000
|501> Q	2	-4.2112282	4.2112282	0.0000000
|502> Q	2	-4.2112282	8.4224564	0.0000000
|503> Q	2	-4.2112282	-6.3168423	2.1056141
|504> Q	2	-4.2112282	-2.1056141	2.1056141
|505> Q	2	-4.2112282	2.1056141	2.1056141
|506> Q	2	-4.2112282	6.3168423	2.1056141
|507> Q	2	-4.2112282	-8.4224564	4.2112282
|508> Q	2	-4.2112282	-4.2112282	4.2112282
|509> Q	2	-4.2112282	0.0000000	4.2112282
|510> Q	2	-4.2112282	4.2112282	4.2112282
|511> Q	2	-4.2112282	8.4224564	4.2112282
|512> Q	2	-4.2112282	-6.3168423	6.3168423
|513> Q	2	-4.2112282	-2.1056141	6.3168423
|514> Q	2	-4.2112282	2.1056141	6.3168423
|515> Q	2	-4.2112282	6.3168423	6.3168423
|516> Q	2	-4.2112282	-8.4224564	8.4224564
|517> Q	2	-4.2112282	-4.2112282	8.4224564
|518> Q	2	-4.2112282	0.0000000	8.4224564
|519> Q	2	-4.2112282	4.2112282	8.4224564
|520> Q	2	-4.2112282	8.4224564	8.4224564
|521> Q	2	-2.1056141	-6.3168423	-8.4224564
|522> Q	2	-2.1056141	-2.1056141	-8.4224564
|523> Q	2	-2.1056141	2.1056141	-8.4224564
|524> Q	2	-2.1056141	6.3168423	-8.4224564
|525> Q	2	-2.1056141	-8.4224564	-6.3168423
|526> Q	2	-2.1056141	-4.2112282	-6.3168423
|527> Q	2	-2.1056141	0.0000000	-6.3168423
|528> Q	2	-2.1056141	4.2112282	-6.3168423
|529> Q	2	-2.1056141	8.4224564	-6.3168423
|530> Q	2	-2.1056141	-6.3168423	-4.2112282
|531> Q	2	-2.1056141	-2.1056141	-4.2112282
|532> Q	2	-2.1056141	2.1056141	-4.2112282
|533> Q	2	-2.1056141	6.3168423	-4.2112282
|534> Q	2	-2.1056141	-8.4224564	-2.1056141
|535> Q	2	-2.1056141	-4.2112282	-2.1056141
|536> Q	2	-2.1056141	4.2112282	-2.1056141
|537> Q	2	-2.1056141	8.4224564	-2.1056141
|538> Q	2	-2.1056141	-6.3168423	0.0000000
|539> Q	2	-2.1056141	6.3168423	0.0000000
|540> Q	2	-2.1056141	-8.4224564	2.1056141
|541> Q	2	-2.1056141	-4.2112282	2.1056141
|542> Q	2	-2.1056141	4.2112282	2.1056141
|543> Q	2	-2.1056141	8.4224564	2.1056141
|544> Q	2	-2.1056141	-6.3168423	4.2112282
|545> Q	2	-2.1056141	-2.1056141	4.2112282
|546> Q	2	-2.1056141	2.1056141	4.2112282
|547> Q	2	-2.1056141	6.3168423	4.2112282
|548> Q	2	-2.1056141	-8.4224564	6.3168423
|549> Q	2	-2.1056141	-4.2112282	6.3168423
|550> Q	2	-2.1056141	0.0000000	6.3168423
|551> Q	2	-2.1056141	4.2112282	6.3168423
|552> Q	2	-2.1056141	8.4224564	6.3168423
|553> Q	2	-2.1056141	-6.3168423	8.4224564
|554> Q	2	-2.1056141	-2.1056141	8.4224564
|555> Q	2	-2.1056141	2.1056141	8.4224564
|556> Q	2	-2.1056141	6.3168423	8.4224564
|557> Q	2	0.0000000	-8.4224564	-8.4224564
|558> Q	2	0.0000000	-4.2112282	-8.4224564
|559> Q	2	0.0000000	0.0000000	-8.4224564
|560> Q	2	0.0000000	4.2112282	-8.4224564
|561> Q	2	0.0000000	8.4224564	-8.4224564
|562> Q	2	0.0000000	-6.3168423	-6.3168423
|563> Q	2	0.0000000	-2.1056141	-6.3168423
|564> Q	2	0.0000000	2.1056141	-6.3168423
|565> Q	2	0.0000000	6.3168423	-6.3168423
|566> Q	2	0.0000000	-8.4224564	-4.2112282
|567> Q	2	0.0000000	-4.2112282	-4.2112282
|568> Q	2	0.0000000	4.2112282	-4.2112282
|569> Q	2	0.0000000	8.4224564	-4.2112282
|570> Q	2	0.0000000	-6.3168423	-2.1056141
|571> Q	2	0.0000000	6.3168423	-2.1056141
|572> Q	2	0.0000000	-8.4224564	0.0000000
|573> Q	2	0.0000000	8.4224564	0.0000000
|574> Q	2	0.0000000	-6.3168423	2.1056141
|575> Q	2	0.0000000	6.3168423	2.1056141
|576> Q	2	0.0000000	-8.4224564	4.2112282
|577> Q	2	0.0000000	-4.2112282	4.2112282
|578> Q	2	0.0000000	4.2112282	4.2112282
|579> Q	2	0.0000000	8.4224564	4.2112282
|580> Q	2	0.0000000	-6.3168423	6.3168423
|581> Q	2	0.0000000	-2.1056141	6.3168423
|582> Q	2	0.0000000	2.1056141	6.3168423
|583> Q	2	0.0000000	6.3168423	6.3168423
|584> Q	2	0.0000000	-8.4224564	8.4224564
|585> Q	2	0.0000000	-4.2112282	8.4224564
|586> Q	2	0.0000000	0.0000000	8.4224564
|587> Q	2	0.0000000	4.2112282	8.4224564
|588> Q	2	0.0000000	8.4224564	8.4224564
|589> Q	2	2.1056141	-6.3168423	-8.4224564
|590> Q	2	2.1056141	-2.1056141	-8.4224564
|591> Q	2	2.1056141	2.1056141	-8.4224564
|592> Q	2	2.1056141	6.3168423	-8.4224564
|593> Q	2	2.1056141	-8.4224564	-6.3168423
|594> Q	2	2.1056141	-4.2112282	-6.3168423
|595> Q	2	2.1056141	0.0000000	-6.3168423
|596> Q	2	2.1056141	4.2112282	-6.3168423
|597> Q	2	2.1056141	8.4224564	-6.3168423
|598> Q	2	2.1056141	-6.3168423	-4.2112282
|599> Q	2	2.1056141	-2.1056141	-4.2112282
|600> Q	2	2.1056141	2.1056141	-4.2112282
|601> Q	2	2.1056141	6.3168423	-4.2112282
|602> Q	2	2.1056141	-8.4224564	-2.1056141
|603> Q	2	2.1056141	-4.2112282	-2.1056141
|604> Q	2	2.1056141	4.2112282	-2.1056141
|605> Q	2	2.1056141	8.4224564	-2.1056141
|606> Q	2	2.1056141	-6.3168423	0.0000000
|607> Q	2	2.1056141	6.3168423	0.0000000
|608> Q	2	2.1056141	-8.4224564	2.1056141
|609> Q	2	2.1056141	-4.2112282	2.1056141
|610> Q	2	2.1056141	4.2112282	2.1056141
|611> Q	2	2.1056141	8.4224564	2.1056141
|612> Q	2	2.1056141	-6.3168423	4.2112282
|613> Q	2	2.1056141	-2.1056141	4.2112282
|614> Q	2	2.1056141	2.1056141	4.2112282
|615> Q	2	2.1056141	6.3168423	4.2112282
|616> Q	2	2.1056141	-8.4224564	6.3168423
|617> Q	2	2.1056141	-4.2112282	6.3168423
|618> Q	2	2.1056141	0.0000000	6.3168423
|619> Q	2	2.1056141	4.2112282	6.3168423
|620> Q	2	2.1056141	8.4224564	6.3168423
|621> Q	2	2.1056141	-6.3168423	8.4224564
|622> Q	2	2.1056141	-2.1056141	8.4224564
|623> Q	2	2.1056141	2.1056141	8.4224564
|624> Q	2	2.1056141	6.3168423	8.4224564
|625> Q	2	4.2112282	-8.4224564	-8.4224564
|626> Q	2	4.2112282	-4.2112282	-8.4224564
|627> Q	2	4.2112282	0.0000000	-8.4224564
|628> Q	2	4.2112282	4.2112282	-8.4224564
|629> Q	2	4.2112282	8.4224564	-8.4224564
|630> Q	2	4.2112282	-6.3168423	-6.3168423
|631> Q	2	4.2112282	-2.1056141	-6.3168423
|632> Q	2	4.2112282	2.1056141	-6.3168423
|633> Q	2	4.2112282	6.3168423	-6.3168423
|634> Q	2	4.2112282	-8.4224564	-4.2112282
|635> Q	2	4.2112282	-4.2112282	-4.2112282
|636> Q	2	4.2112282	0.0000000	-4.2112282
|637> Q	2	4.2112282	4.2112282	-4.2112282
|638> Q	2	4.2112282	8.4224564	-4.2112282
|639> Q	2	4.2112282	-6.3168423	-2.1056141
|640> Q	2	4.2112282	-2.1056141	-2.1056141
|641> Q	2	4.2112282	2.1056141	-2.1056141
|642> Q	2	4.2112282	6.3168423	-2.1056141
|643> Q	2	4.2112282	-8.4224564	0.0000000
|644> Q	2	4.2112282	-4.2112282	0.0000000
|645> Q	2	4.2112282	4.2112282	0.0000000
|646> Q	2	4.2112282	8.4224564	0.0000000
|647> Q	2	4.2112282	-6.3168423	2.1056141
|648> Q	2	4.2112282	-2.1056141	2.1056141
|649> Q	2	4.2112282	2.1056141	2.1056141
|650> Q	2	4.2112282	6.3168423	2.1056141
|651> Q	2	4.2112282	-8.4224564	4.2112282
|652> Q	2	4.2112282	-4.2112282	4.2112282
|653> Q	2	4.2112282	0.0000000	4.2112282
|654> Q	2	4.2112282	4.2112282	4.2112282
|655> Q	2	4.2112282	8.4224564	4.2112282
|656> Q	2	4.2112282	-6.3168423	6.3168423
|657> Q	2	4.2112282	-2.1056141	6.3168423
|658> Q	2	4.2112282	2.1056141	6.3168423
|659> Q	2	4.2112282	6.3168423	6.3168423
|660> Q	2	4.2112282	-8.4224564	8.4224564
|661> Q	2	4.2112282	-4.2112282	8.4224564
|662> Q	2	4.2112282	0.0000000	8.4224564
|663> Q	2	4.2112282	4.2112282	8.4224564
|664> Q	2	4.2112282	8.4224564	8.4224564
|665> Q	2	6.3168423	-6.3168423	-8.4224564
|666> Q	2	6.3168423	-2.1056141	-8.4224564
|667> Q	2	6.3168423	2.1056141	-8.4224564
|668> Q	2	6.3168423	6.3168423	-8.4224564
|669> Q	2	6.3168423	-8.4224564	-6.3168423
|670> Q	2	6.3168423	-4.2112282	-6.3168423
|671> Q	2	6.3168423	0.0000000	-6.3168423
|672> Q	2	6.3168423	4.2112282	-6.3168423
|673> Q	2	6.3168423	8.4224564	-6.3168423
|674> Q	2	6.3168423	-6.3168423	-4.2112282
|675> Q	2	6.3168423	-2.1056141	-4.2112282
|676> Q	2	6.3168423	2.1056141	-4.2112282
|677> Q	2	6.3168423	6.3168423	-4.2112282
|678> Q	2	6.3168423	-8.4224564	-2.1056141
|679> Q	2	6.3168423	-4.2112282	-2.1056141
|680> Q	2	6.3168423	0.0000000	-2.1056141
|681> Q	2	6.3168423	4.2112282	-2.1056141
|682> Q	2	6.3168423	8.4224564	-2.1056141
|683> Q	2	6.3168423	-6.3168423	0.0000000
|684> Q	2	6.3168423	-2.1056141	0.0000000
|685> Q	2	6.3168423	2.1056141	0.0000000
|686> Q	2	6.3168423	6.3168423	0.0000000
|687> Q	2	6.3168423	-8.4224564	2.1056141
|688> Q	2	6.3168423	-4.2112282	2.1056141
|689> Q	2	6.3168423	0.0000000	2.1056141
|690> Q	2	6.3168423	4.2112282	2.1056141
|691> Q	2	6.3168423	8.4224564	2.1056141
|692> Q	2	6.3168423	-6.3168423	4.2112282
|693> Q	2	6.3168423	-2.1056141	4.2112282
|694> Q	2	6.3168423	2.1056141	4.2112282
|695> Q	2	6.3168423	6.3168423	4.2112282
|696> Q	2	6.3168423	-8.4224564	6.3168423
|697> Q	2	6.3168423	-4.2112282	6.3168423
|698> Q	2	6.3168423	0.0000000	6.3168423
|699> Q	2	6.3168423	4.2112282	6.3168423
|700> Q	2	6.3168423	8.4224564	6.3168423
|701> Q	2	6.3168423	-6.3168423	8.4224564
|702> Q	2	6.3168423	-2.1056141	8.4224564
|703> Q	2	6.3168423	2.1056141	8.4224564
|704> Q	2	6.3168423	6.3168423	8.4224564
|705> Q	2	8.4224564	-8.4224564	-8.4224564
|706> Q	2	8.4224564	-4.2112282	-8.4224564
|707> Q	2	8.4224564	0.0000000	-8.4224564
|708> Q	2	8.4224564	4.2112282	-8.4224564
|709> Q	2	8.4224564	8.4224564	-8.4224564
|710> Q	2	8.4224564	-6.3168423	-6.3168423
|711> Q	2	8.4224564	-2.1056141	-6.3168423
|712> Q	2	8.4224564	2.1056141	-6.3168423
|713> Q	2	8.4224564	6.3168423	-6.3168423
|714> Q	2	8.4224564	-8.4224564	-4.2112282
|715> Q	2	8.4224564	-4.2112282	-4.2112282
|716> Q	2	8.4224564	0.0000000	-4.2112282
|717> Q	2	8.4224564	4.2112282	-4.2112282
|718> Q	2	8.4224564	8.4224564	-4.2112282
|719> Q	2	8.4224564	-6.3168423	-2.1056141
|720> Q	2	8.4224564	-2.1056141	-2.1056141
|721> Q	2	8.4224564	2.1056141	-2.1056141
|722> Q	2	8.4224564	6.3168423	-2.1056141
|723> Q	2	8.4224564	-8.4224564	0.0000000
|724> Q	2	8.4224564	-4.2112282	0.0000000
|725> Q	2	8.4224564	0.0000000	0.0000000
|726> Q	2	8.4224564	4.2112282	0.0000000
|727> Q	2	8.4224564	8.4224564	0.0000000
|728> Q	2	8.4224564	-6.3168423	2.1056141
|729> Q	2	8.4224564	-2.1056141	2.1056141
|730> Q	2	8.4224564	2.1056141	2.1056141
|731> Q	2	8.4224564	6.3168423	2.1056141
|732> Q	2	8.4224564	-8.4224564	4.2112282
|733> Q	2	8.4224564	-4.2112282	4.2112282
|734> Q	2	8.4224564	0.0000000	4.2112282
|735> Q	2	8.4224564	4.2112282	4.2112282
|736> Q	2	8.4224564	8.4224564	4.2112282
|737> Q	2	8.4224564	-6.3168423	6.3168423
|738> Q	2	8.4224564	-2.1056141	6.3168423
|739> Q	2	8.4224564	2.1056141	6.3168423
|740> Q	2	8.4224564	6.3168423	6.3168423
|741> Q	2	8.4224564	-8.4224564	8.4224564
|742> Q	2	8.4224564	-4.2112282	8.4224564
|743> Q	2	8.4224564	0.0000000	8.4224564
|744> Q	2	8.4224564	4.2112282	8.4224564
|745> Q	2	8.4224564	8.4224564	8.4224564
|746> end
|747> end
|748> 
|749>                          ****END OF INPUT****
================================================================================

                       ****************************
                       * Single Point Calculation *
                       ****************************

---------------------------------
CARTESIAN COORDINATES (ANGSTROEM)
---------------------------------
  Fe     0.000000    0.000000    0.000000
  O      2.105614    0.000000    0.000000
  O     -2.105614    0.000000    0.000000
  O      0.000000    2.105614    0.000000
  O      0.000000   -2.105614    0.000000
  O      0.000000    0.000000    2.105614
  O      0.000000    0.000000   -2.105614
  Mg     2.105614    2.105614    0.000000
  Mg     2.105614   -2.105614    0.000000
  Mg    -2.105614    2.105614    0.000000
  Mg    -2.105614   -2.105614    0.000000
  Mg     2.105614    0.000000    2.105614
  Mg     2.105614    0.000000   -2.105614
  Mg    -2.105614    0.000000    2.105614
  Mg    -2.105614    0.000000   -2.105614
  Mg>    0.000000    2.105614    2.105614
  Mg>    0.000000    2.105614   -2.105614
  Mg>    0.000000   -2.105614    2.105614
  Mg>    0.000000   -2.105614   -2.105614
  Mg>    4.211228    0.000000    0.000000
  Mg>   -4.211228    0.000000    0.000000
  Mg>    0.000000    4.211228    0.000000
  Mg>    0.000000   -4.211228    0.000000
  Mg>    0.000000    0.000000    4.211228
  Mg>    0.000000    0.000000   -4.211228
  Q     -8.422456   -6.316842   -8.422456
  Q     -8.422456   -2.105614   -8.422456
  Q     -8.422456    2.105614   -8.422456
  Q     -8.422456    6.316842   -8.422456
  Q     -8.422456   -8.422456   -6.316842
  Q     -8.422456   -4.211228   -6.316842
  Q     -8.422456    0.000000   -6.316842
  Q     -8.422456    4.211228   -6.316842
  Q     -8.422456    8.422456   -6.316842
  Q     -8.422456   -6.316842   -4.211228
  Q     -8.422456   -2.105614   -4.211228
  Q     -8.422456    2.105614   -4.211228
  Q     -8.422456    6.316842   -4.211228
  Q     -8.422456   -8.422456   -2.105614
  Q     -8.422456   -4.211228   -2.105614
  Q     -8.422456    0.000000   -2.105614
  Q     -8.422456    4.211228   -2.105614
  Q     -8.422456    8.422456   -2.105614
  Q     -8.422456   -6.316842    0.000000
  Q     -8.422456   -2.105614    0.000000
  Q     -8.422456    2.105614    0.000000
  Q     -8.422456    6.316842    0.000000
  Q     -8.422456   -8.422456    2.105614
  Q     -8.422456   -4.211228    2.105614
  Q     -8.422456    0.000000    2.105614
  Q     -8.422456    4.211228    2.105614
  Q     -8.422456    8.422456    2.105614
  Q     -8.422456   -6.316842    4.211228
  Q     -8.422456   -2.105614    4.211228
  Q     -8.422456    2.105614    4.211228
  Q     -8.422456    6.316842    4.211228
  Q     -8.422456   -8.422456    6.316842
  Q     -8.422456   -4.211228    6.316842
  Q     -8.422456    0.000000    6.316842
  Q     -8.422456    4.211228    6.316842
  Q     -8.422456    8.422456    6.316842
  Q     -8.422456   -6.316842    8.422456
  Q     -8.422456   -2.105614    8.422456
  Q     -8.422456    2.105614    8.422456
  Q     -8.422456    6.316842    8.422456
  Q     -6.316842   -8.422456   -8.422456
  Q     -6.316842   -4.211228   -8.422456
  Q     -6.316842    0.000000   -8.422456
  Q     -6.316842    4.211228   -8.422456
  Q     -6.316842    8.422456   -8.422456
  Q     -6.316842   -6.316842   -6.316842
  Q     -6.316842   -2.105614   -6.316842
  Q     -6.316842    2.105614   -6.316842
  Q     -6.316842    6.316842   -6.316842
  Q     -6.316842   -8.422456   -4.211228
  Q     -6.316842   -4.211228   -4.211228
  Q     -6.316842    0.000000   -4.211228
  Q     -6.316842    4.211228   -4.211228
  Q     -6.316842    8.422456   -4.211228
  Q     -6.316842   -6.316842   -2.105614
  Q     -6.316842   -2.105614   -2.105614
  Q     -6.316842    2.105614   -2.105614
  Q     -6.316842    6.316842   -2.105614
  Q     -6.316842   -8.422456    0.000000
  Q     -6.316842   -4.211228    0.000000
  Q     -6.316842    0.000000    0.000000
  Q     -6.316842    4.211228    0.000000
  Q     -6.316842    8.422456    0.000000
  Q     -6.316842   -6.316842    2.105614
  Q     -6.316842   -2.105614    2.105614
  Q     -6.316842    2.105614    2.105614
  Q     -6.316842    6.316842    2.105614
  Q     -6.316842   -8.422456    4.211228
  Q     -6.316842   -4.211228    4.211228
  Q     -6.316842    0.000000    4.211228
  Q     -6.316842    4.211228    4.211228
  Q     -6.316842    8.422456    4.211228
  Q     -6.316842   -6.316842    6.316842
  Q     -6.316842   -2.105614    6.316842
  Q     -6.316842    2.105614    6.316842
  Q     -6.316842    6.316842    6.316842
  Q     -6.316842   -8.422456    8.422456
  Q     -6.316842   -4.211228    8.422456
  Q     -6.316842    0.000000    8.422456
  Q     -6.316842    4.211228    8.422456
  Q     -6.316842    8.422456    8.422456
  Q     -4.211228   -6.316842   -8.422456
  Q     -4.211228   -2.105614   -8.422456
  Q     -4.211228    2.105614   -8.422456
  Q     -4.211228    6.316842   -8.422456
  Q     -4.211228   -8.422456   -6.316842
  Q     -4.211228   -4.211228   -6.316842
  Q     -4.211228    0.000000   -6.316842
  Q     -4.211228    4.211228   -6.316842
  Q     -4.211228    8.422456   -6.316842
  Q     -4.211228   -6.316842   -4.211228
  Q     -4.211228   -2.105614   -4.211228
  Q     -4.211228    2.105614   -4.211228
  Q     -4.211228    6.316842   -4.211228
  Q     -4.211228   -8.422456   -2.105614
  Q     -4.211228   -4.211228   -2.105614
  Q     -4.211228    0.000000   -2.105614
  Q     -4.211228    4.211228   -2.105614
  Q     -4.211228    8.422456   -2.105614
  Q     -4.211228   -6.316842    0.000000
  Q     -4.211228   -2.105614    0.000000
  Q     -4.211228    2.105614    0.000000
  Q     -4.211228    6.316842    0.000000
  Q     -4.211228   -8.422456    2.105614
  Q     -4.211228   -4.211228    2.105614
  Q     -4.211228    0.000000    2.105614
  Q     -4.211228    4.211228    2.105614
  Q     -4.211228    8.422456    2.105614
  Q     -4.211228   -6.316842    4.211228
  Q     -4.211228   -2.105614    4.211228
  Q     -4.211228    2.105614    4.211228
  Q     -4.211228    6.316842    4.211228
  Q     -4.211228   -8.422456    6.316842
  Q     -4.211228   -4.211228    6.316842
  Q     -4.211228    0.000000    6.316842
  Q     -4.211228    4.211228    6.316842
  Q     -4.211228    8.422456    6.316842
  Q     -4.211228   -6.316842    8.422456
  Q     -4.211228   -2.105614    8.422456
  Q     -4.211228    2.105614    8.422456
  Q     -4.211228    6.316842    8.422456
  Q     -2.105614   -8.422456   -8.422456
  Q     -2.105614   -4.211228   -8.422456
  Q     -2.105614    0.000000   -8.422456
  Q     -2.105614    4.211228   -8.422456
  Q     -2.105614    8.422456   -8.422456
  Q     -2.105614   -6.316842   -6.316842
  Q     -2.105614   -2.105614   -6.316842
  Q     -2.105614    2.105614   -6.316842
  Q     -2.105614    6.316842   -6.316842
  Q     -2.105614   -8.422456   -4.211228
  Q     -2.105614   -4.211228   -4.211228
  Q     -2.105614    0.000000   -4.211228
  Q     -2.105614    4.211228   -4.211228
  Q     -2.105614    8.422456   -4.211228
  Q     -2.105614   -6.316842   -2.105614
  Q     -2.105614   -2.105614   -2.105614
  Q     -2.105614    2.105614   -2.105614
  Q     -2.105614    6.316842   -2.105614
  Q     -2.105614   -8.422456    0.000000
  Q     -2.105614   -4.211228    0.000000
  Q     -2.105614    4.211228    0.000000
  Q     -2.105614    8.422456    0.000000
  Q     -2.105614   -6.316842    2.105614
  Q     -2.105614   -2.105614    2.105614
  Q     -2.105614    2.105614    2.105614
  Q     -2.105614    6.316842    2.105614
  Q     -2.105614   -8.422456    4.211228
  Q     -2.105614   -4.211228    4.211228
  Q     -2.105614    0.000000    4.211228
  Q     -2.105614    4.211228    4.211228
  Q     -2.105614    8.422456    4.211228
  Q     -2.105614   -6.316842    6.316842
  Q     -2.105614   -2.105614    6.316842
  Q     -2.105614    2.105614    6.316842
  Q     -2.105614    6.316842    6.316842
  Q     -2.105614   -8.422456    8.422456
  Q     -2.105614   -4.211228    8.422456
  Q     -2.105614    0.000000    8.422456
  Q     -2.105614    4.211228    8.422456
  Q     -2.105614    8.422456    8.422456
  Q      0.000000   -6.316842   -8.422456
  Q      0.000000   -2.105614   -8.422456
  Q      0.000000    2.105614   -8.422456
  Q      0.000000    6.316842   -8.422456
  Q      0.000000   -8.422456   -6.316842
  Q      0.000000   -4.211228   -6.316842
  Q      0.000000    0.000000   -6.316842
  Q      0.000000    4.211228   -6.316842
  Q      0.000000    8.422456   -6.316842
  Q      0.000000   -6.316842   -4.211228
  Q      0.000000   -2.105614   -4.211228
  Q      0.000000    2.105614   -4.211228
  Q      0.000000    6.316842   -4.211228
  Q      0.000000   -8.422456   -2.105614
  Q      0.000000   -4.211228   -2.105614
  Q      0.000000    4.211228   -2.105614
  Q      0.000000    8.422456   -2.105614
  Q      0.000000   -6.316842    0.000000
  Q      0.000000    6.316842    0.000000
  Q      0.000000   -8.422456    2.105614
  Q      0.000000   -4.211228    2.105614
  Q      0.000000    4.211228    2.105614
  Q      0.000000    8.422456    2.105614
  Q      0.000000   -6.316842    4.211228
  Q      0.000000   -2.105614    4.211228
  Q      0.000000    2.105614    4.211228
  Q      0.000000    6.316842    4.211228
  Q      0.000000   -8.422456    6.316842
  Q      0.000000   -4.211228    6.316842
  Q      0.000000    0.000000    6.316842
  Q      0.000000    4.211228    6.316842
  Q      0.000000    8.422456    6.316842
  Q      0.000000   -6.316842    8.422456
  Q      0.000000   -2.105614    8.422456
  Q      0.000000    2.105614    8.422456
  Q      0.000000    6.316842    8.422456
  Q      2.105614   -8.422456   -8.422456
  Q      2.105614   -4.211228   -8.422456
  Q      2.105614    0.000000   -8.422456
  Q      2.105614    4.211228   -8.422456
  Q      2.105614    8.422456   -8.422456
  Q      2.105614   -6.316842   -6.316842
  Q      2.105614   -2.105614   -6.316842
  Q      2.105614    2.105614   -6.316842
  Q      2.105614    6.316842   -6.316842
  Q      2.105614   -8.422456   -4.211228
  Q      2.105614   -4.211228   -4.211228
  Q      2.105614    0.000000   -4.211228
  Q      2.105614    4.211228   -4.211228
  Q      2.105614    8.422456   -4.211228
  Q      2.105614   -6.316842   -2.105614
  Q      2.105614   -2.105614   -2.105614
  Q      2.105614    2.105614   -2.105614
  Q      2.105614    6.316842   -2.105614
  Q      2.105614   -8.422456    0.000000
  Q      2.105614   -4.211228    0.000000
  Q      2.105614    4.211228    0.000000
  Q      2.105614    8.422456    0.000000
  Q      2.105614   -6.316842    2.105614
  Q      2.105614   -2.105614    2.105614
  Q      2.105614    2.105614    2.105614
  Q      2.105614    6.316842    2.105614
  Q      2.105614   -8.422456    4.211228
  Q      2.105614   -4.211228    4.211228
  Q      2.105614    0.000000    4.211228
  Q      2.105614    4.211228    4.211228
  Q      2.105614    8.422456    4.211228
  Q      2.105614   -6.316842    6.316842
  Q      2.105614   -2.105614    6.316842
  Q      2.105614    2.105614    6.316842
  Q      2.105614    6.316842    6.316842
  Q      2.105614   -8.422456    8.422456
  Q      2.105614   -4.211228    8.422456
  Q      2.105614    0.000000    8.422456
  Q      2.105614    4.211228    8.422456
  Q      2.105614    8.422456    8.422456
  Q      4.211228   -6.316842   -8.422456
  Q      4.211228   -2.105614   -8.422456
  Q      4.211228    2.105614   -8.422456
  Q      4.211228    6.316842   -8.422456
  Q      4.211228   -8.422456   -6.316842
  Q      4.211228   -4.211228   -6.316842
  Q      4.211228    0.000000   -6.316842
  Q      4.211228    4.211228   -6.316842
  Q      4.211228    8.422456   -6.316842
  Q      4.211228   -6.316842   -4.211228
  Q      4.211228   -2.105614   -4.211228
  Q      4.211228    2.105614   -4.211228
  Q      4.211228    6.316842   -4.211228
  Q      4.211228   -8.422456   -2.105614
  Q      4.211228   -4.211228   -2.105614
  Q      4.211228    0.000000   -2.105614
  Q      4.211228    4.211228   -2.105614
  Q      4.211228    8.422456   -2.105614
  Q      4.211228   -6.316842    0.000000
  Q      4.211228   -2.105614    0.000000
  Q      4.211228    2.105614    0.000000
  Q      4.211228    6.316842    0.000000
  Q      4.211228   -8.422456    2.105614
  Q      4.211228   -4.211228    2.105614
  Q      4.211228    0.000000    2.105614
  Q      4.211228    4.211228    2.105614
  Q      4.211228    8.422456    2.105614
  Q      4.211228   -6.316842    4.211228
  Q      4.211228   -2.105614    4.211228
  Q      4.211228    2.105614    4.211228
  Q      4.211228    6.316842    4.211228
  Q      4.211228   -8.422456    6.316842
  Q      4.211228   -4.211228    6.316842
  Q      4.211228    0.000000    6.316842
  Q      4.211228    4.211228    6.316842
  Q      4.211228    8.422456    6.316842
  Q      4.211228   -6.316842    8.422456
  Q      4.211228   -2.105614    8.422456
  Q      4.211228    2.105614    8.422456
  Q      4.211228    6.316842    8.422456
  Q      6.316842   -8.422456   -8.422456
  Q      6.316842   -4.211228   -8.422456
  Q      6.316842    0.000000   -8.422456
  Q      6.316842    4.211228   -8.422456
  Q      6.316842    8.422456   -8.422456
  Q      6.316842   -6.316842   -6.316842
  Q      6.316842   -2.105614   -6.316842
  Q      6.316842    2.105614   -6.316842
  Q      6.316842    6.316842   -6.316842
  Q      6.316842   -8.422456   -4.211228
  Q      6.316842   -4.211228   -4.211228
  Q      6.316842    0.000000   -4.211228
  Q      6.316842    4.211228   -4.211228
  Q      6.316842    8.422456   -4.211228
  Q      6.316842   -6.316842   -2.105614
  Q      6.316842   -2.105614   -2.105614
  Q      6.316842    2.105614   -2.105614
  Q      6.316842    6.316842   -2.105614
  Q      6.316842   -8.422456    0.000000
  Q      6.316842   -4.211228    0.000000
  Q      6.316842    0.000000    0.000000
  Q      6.316842    4.211228    0.000000
  Q      6.316842    8.422456    0.000000
  Q      6.316842   -6.316842    2.105614
  Q      6.316842   -2.105614    2.105614
  Q      6.316842    2.105614    2.105614
  Q      6.316842    6.316842    2.105614
  Q      6.316842   -8.422456    4.211228
  Q      6.316842   -4.211228    4.211228
  Q      6.316842    0.000000    4.211228
  Q      6.316842    4.211228    4.211228
  Q      6.316842    8.422456    4.211228
  Q      6.316842   -6.316842    6.316842
  Q      6.316842   -2.105614    6.316842
  Q      6.316842    2.105614    6.316842
  Q      6.316842    6.316842    6.316842
  Q      6.316842   -8.422456    8.422456
  Q      6.316842   -4.211228    8.422456
  Q      6.316842    0.000000    8.422456
  Q      6.316842    4.211228    8.422456
  Q      6.316842    8.422456    8.422456
  Q      8.422456   -6.316842   -8.422456
  Q      8.422456   -2.105614   -8.422456
  Q      8.422456    2.105614   -8.422456
  Q      8.422456    6.316842   -8.422456
  Q      8.422456   -8.422456   -6.316842
  Q      8.422456   -4.211228   -6.316842
  Q      8.422456    0.000000   -6.316842
  Q      8.422456    4.211228   -6.316842
  Q      8.422456    8.422456   -6.316842
  Q      8.422456   -6.316842   -4.211228
  Q      8.422456   -2.105614   -4.211228
  Q      8.422456    2.105614   -4.211228
  Q      8.422456    6.316842   -4.211228
  Q      8.422456   -8.422456   -2.105614
  Q      8.422456   -4.211228   -2.105614
  Q      8.422456    0.000000   -2.105614
  Q      8.422456    4.211228   -2.105614
  Q      8.422456    8.422456   -2.105614
  Q      8.422456   -6.316842    0.000000
  Q      8.422456   -2.105614    0.000000
  Q      8.422456    2.105614    0.000000
  Q      8.422456    6.316842    0.000000
  Q      8.422456   -8.422456    2.105614
  Q      8.422456   -4.211228    2.105614
  Q      8.422456    0.000000    2.105614
  Q      8.422456    4.211228    2.105614
  Q      8.422456    8.422456    2.105614
  Q      8.422456   -6.316842    4.211228
  Q      8.422456   -2.105614    4.211228
  Q      8.422456    2.105614    4.211228
  Q      8.422456    6.316842    4.211228
  Q      8.422456   -8.422456    6.316842
  Q      8.422456   -4.211228    6.316842
  Q      8.422456    0.000000    6.316842
  Q      8.422456    4.211228    6.316842
  Q      8.422456    8.422456    6.316842
  Q      8.422456   -6.316842    8.422456
  Q      8.422456   -2.105614    8.422456
  Q      8.422456    2.105614    8.422456
  Q      8.422456    6.316842    8.422456
  Q     -8.422456   -8.422456   -8.422456
  Q     -8.422456   -4.211228   -8.422456
  Q     -8.422456    0.000000   -8.422456
  Q     -8.422456    4.211228   -8.422456
  Q     -8.422456    8.422456   -8.422456
  Q     -8.422456   -6.316842   -6.316842
  Q     -8.422456   -2.105614   -6.316842
  Q     -8.422456    2.105614   -6.316842
  Q     -8.422456    6.316842   -6.316842
  Q     -8.422456   -8.422456   -4.211228
  Q     -8.422456   -4.211228   -4.211228
  Q     -8.422456    0.000000   -4.211228
  Q     -8.422456    4.211228   -4.211228
  Q     -8.422456    8.422456   -4.211228
  Q     -8.422456   -6.316842   -2.105614
  Q     -8.422456   -2.105614   -2.105614
  Q     -8.422456    2.105614   -2.105614
  Q     -8.422456    6.316842   -2.105614
  Q     -8.422456   -8.422456    0.000000
  Q     -8.422456   -4.211228    0.000000
  Q     -8.422456    0.000000    0.000000
  Q     -8.422456    4.211228    0.000000
  Q     -8.422456    8.422456    0.000000
  Q     -8.422456   -6.316842    2.105614
  Q     -8.422456   -2.105614    2.105614
  Q     -8.422456    2.105614    2.105614
  Q     -8.422456    6.316842    2.105614
  Q     -8.422456   -8.422456    4.211228
  Q     -8.422456   -4.211228    4.211228
  Q     -8.422456    0.000000    4.211228
  Q     -8.422456    4.211228    4.211228
  Q     -8.422456    8.422456    4.211228
  Q     -8.422456   -6.316842    6.316842
  Q     -8.422456   -2.105614    6.316842
  Q     -8.422456    2.105614    6.316842
  Q     -8.422456    6.316842    6.316842
  Q     -8.422456   -8.422456    8.422456
  Q     -8.422456   -4.211228    8.422456
  Q     -8.422456    0.000000    8.422456
  Q     -8.422456    4.211228    8.422456
  Q     -8.422456    8.422456    8.422456
  Q     -6.316842   -6.316842   -8.422456
  Q     -6.316842   -2.105614   -8.422456
  Q     -6.316842    2.105614   -8.422456
  Q     -6.316842    6.316842   -8.422456
  Q     -6.316842   -8.422456   -6.316842
  Q     -6.316842   -4.211228   -6.316842
  Q     -6.316842    0.000000   -6.316842
  Q     -6.316842    4.211228   -6.316842
  Q     -6.316842    8.422456   -6.316842
  Q     -6.316842   -6.316842   -4.211228
  Q     -6.316842   -2.105614   -4.211228
  Q     -6.316842    2.105614   -4.211228
  Q     -6.316842    6.316842   -4.211228
  Q     -6.316842   -8.422456   -2.105614
  Q     -6.316842   -4.211228   -2.105614
  Q     -6.316842    0.000000   -2.105614
  Q     -6.316842    4.211228   -2.105614
  Q     -6.316842    8.422456   -2.105614
  Q     -6.316842   -6.316842    0.000000
  Q     -6.316842   -2.105614    0.000000
  Q     -6.316842    2.105614    0.000000
  Q     -6.316842    6.316842    0.000000
  Q     -6.316842   -8.422456    2.105614
  Q     -6.316842   -4.211228    2.105614
  Q     -6.316842    0.000000    2.105614
  Q     -6.316842    4.211228    2.105614
  Q     -6.316842    8.422456    2.105614
  Q     -6.316842   -6.316842    4.211228
  Q     -6.316842   -2.105614    4.211228
  Q     -6.316842    2.105614    4.211228
  Q     -6.316842    6.316842    4.211228
  Q     -6.316842   -8.422456    6.316842
  Q     -6.316842   -4.211228    6.316842
  Q     -6.316842    0.000000    6.316842
  Q     -6.316842    4.211228    6.316842
  Q     -6.316842    8.422456    6.316842
  Q     -6.316842   -6.316842    8.422456
  Q     -6.316842   -2.105614    8.422456
  Q     -6.316842    2.105614    8.422456
  Q     -6.316842    6.316842    8.422456
  Q     -4.211228   -8.422456   -8.422456
  Q     -4.211228   -4.211228   -8.422456
  Q     -4.211228    0.000000   -8.422456
  Q     -4.211228    4.211228   -8.422456
  Q     -4.211228    8.422456   -8.422456
  Q     -4.211228   -6.316842   -6.316842
  Q     -4.211228   -2.105614   -6.316842
  Q     -4.211228    2.105614   -6.316842
  Q     -4.211228    6.316842   -6.316842
  Q     -4.211228   -8.422456   -4.211228
  Q     -4.211228   -4.211228   -4.211228
  Q     -4.211228    0.000000   -4.211228
  Q     -4.211228    4.211228   -4.211228
  Q     -4.211228    8.422456   -4.211228
  Q     -4.211228   -6.316842   -2.105614
  Q     -4.211228   -2.105614   -2.105614
  Q     -4.211228    2.105614   -2.105614
  Q     -4.211228    6.316842   -2.105614
  Q     -4.211228   -8.422456    0.000000
  Q     -4.211228   -4.211228    0.000000
  Q     -4.211228    4.211228    0.000000
  Q     -4.211228    8.422456    0.000000
  Q     -4.211228   -6.316842    2.105614
  Q     -4.211228   -2.105614    2.105614
  Q     -4.211228    2.105614    2.105614
  Q     -4.211228    6.316842    2.105614
  Q     -4.211228   -8.422456    4.211228
  Q     -4.211228   -4.211228    4.211228
  Q     -4.211228    0.000000    4.211228
  Q     -4.211228    4.211228    4.211228
  Q     -4.211228    8.422456    4.211228
  Q     -4.211228   -6.316842    6.316842
  Q     -4.211228   -2.105614    6.316842
  Q     -4.211228    2.105614    6.316842
  Q     -4.211228    6.316842    6.316842
  Q     -4.211228   -8.422456    8.422456
  Q     -4.211228   -4.211228    8.422456
  Q     -4.211228    0.000000    8.422456
  Q     -4.211228    4.211228    8.422456
  Q     -4.211228    8.422456    8.422456
  Q     -2.105614   -6.316842   -8.422456
  Q     -2.105614   -2.105614   -8.422456
  Q     -2.105614    2.105614   -8.422456
  Q     -2.105614    6.316842   -8.422456
  Q     -2.105614   -8.422456   -6.316842
  Q     -2.105614   -4.211228   -6.316842
  Q     -2.105614    0.000000   -6.316842
  Q     -2.105614    4.211228   -6.316842
  Q     -2.105614    8.422456   -6.316842
  Q     -2.105614   -6.316842   -4.211228
  Q     -2.105614   -2.105614   -4.211228
  Q     -2.105614    2.105614   -4.211228
  Q     -2.105614    6.316842   -4.211228
  Q     -2.105614   -8.422456   -2.105614
  Q     -2.105614   -4.211228   -2.105614
  Q     -2.105614    4.211228   -2.105614
  Q     -2.105614    8.422456   -2.105614
  Q     -2.105614   -6.316842    0.000000
  Q     -2.105614    6.316842    0.000000
  Q     -2.105614   -8.422456    2.105614
  Q     -2.105614   -4.211228    2.105614
  Q     -2.105614    4.211228    2.105614
  Q     -2.105614    8.422456    2.105614
  Q     -2.105614   -6.316842    4.211228
  Q     -2.105614   -2.105614    4.211228
  Q     -2.105614    2.105614    4.211228
  Q     -2.105614    6.316842    4.211228
  Q     -2.105614   -8.422456    6.316842
  Q     -2.105614   -4.211228    6.316842
  Q     -2.105614    0.000000    6.316842
  Q     -2.105614    4.211228    6.316842
  Q     -2.105614    8.422456    6.316842
  Q     -2.105614   -6.316842    8.422456
  Q     -2.105614   -2.105614    8.422456
  Q     -2.105614    2.105614    8.422456
  Q     -2.105614    6.316842    8.422456
  Q      0.000000   -8.422456   -8.422456
  Q      0.000000   -4.211228   -8.422456
  Q      0.000000    0.000000   -8.422456
  Q      0.000000    4.211228   -8.422456
  Q      0.000000    8.422456   -8.422456
  Q      0.000000   -6.316842   -6.316842
  Q      0.000000   -2.105614   -6.316842
  Q      0.000000    2.105614   -6.316842
  Q      0.000000    6.316842   -6.316842
  Q      0.000000   -8.422456   -4.211228
  Q      0.000000   -4.211228   -4.211228
  Q      0.000000    4.211228   -4.211228
  Q      0.000000    8.422456   -4.211228
  Q      0.000000   -6.316842   -2.105614
  Q      0.000000    6.316842   -2.105614
  Q      0.000000   -8.422456    0.000000
  Q      0.000000    8.422456    0.000000
  Q      0.000000   -6.316842    2.105614
  Q      0.000000    6.316842    2.105614
  Q      0.000000   -8.422456    4.211228
  Q      0.000000   -4.211228    4.211228
  Q      0.000000    4.211228    4.211228
  Q      0.000000    8.422456    4.211228
  Q      0.000000   -6.316842    6.316842
  Q      0.000000   -2.105614    6.316842
  Q      0.000000    2.105614    6.316842
  Q      0.000000    6.316842    6.316842
  Q      0.000000   -8.422456    8.422456
  Q      0.000000   -4.211228    8.422456
  Q      0.000000    0.000000    8.422456
  Q      0.000000    4.211228    8.422456
  Q      0.000000    8.422456    8.422456
  Q      2.105614   -6.316842   -8.422456
  Q      2.105614   -2.105614   -8.422456
  Q      2.105614    2.105614   -8.422456
  Q      2.105614    6.316842   -8.422456
  Q      2.105614   -8.422456   -6.316842
  Q      2.105614   -4.211228   -6.316842
  Q      2.105614    0.000000   -6.316842
  Q      2.105614    4.211228   -6.316842
  Q      2.105614    8.422456   -6.316842
  Q      2.105614   -6.316842   -4.211228
  Q      2.105614   -2.105614   -4.211228
  Q      2.105614    2.105614   -4.211228
  Q      2.105614    6.316842   -4.211228
  Q      2.105614   -8.422456   -2.105614
  Q      2.105614   -4.211228   -2.105614
  Q      2.105614    4.211228   -2.105614
  Q      2.105614    8.422456   -2.105614
  Q      2.105614   -6.316842    0.000000
  Q      2.105614    6.316842    0.000000
  Q      2.105614   -8.422456    2.105614
  Q      2.105614   -4.211228    2.105614
  Q      2.105614    4.211228    2.105614
  Q      2.105614    8.422456    2.105614
  Q      2.105614   -6.316842    4.211228
  Q      2.105614   -2.105614    4.211228
  Q      2.105614    2.105614    4.211228
  Q      2.105614    6.316842    4.211228
  Q      2.105614   -8.422456    6.316842
  Q      2.105614   -4.211228    6.316842
  Q      2.105614    0.000000    6.316842
  Q      2.105614    4.211228    6.316842
  Q      2.105614    8.422456    6.316842
  Q      2.105614   -6.316842    8.422456
  Q      2.105614   -2.105614    8.422456
  Q      2.105614    2.105614    8.422456
  Q      2.105614    6.316842    8.422456
  Q      4.211228   -8.422456   -8.422456
  Q      4.211228   -4.211228   -8.422456
  Q      4.211228    0.000000   -8.422456
  Q      4.211228    4.211228   -8.422456
  Q      4.211228    8.422456   -8.422456
  Q      4.211228   -6.316842   -6.316842
  Q      4.211228   -2.105614   -6.316842
  Q      4.211228    2.105614   -6.316842
  Q      4.211228    6.316842   -6.316842
  Q      4.211228   -8.422456   -4.211228
  Q      4.211228   -4.211228   -4.211228
  Q      4.211228    0.000000   -4.211228
  Q      4.211228    4.211228   -4.211228
  Q      4.211228    8.422456   -4.211228
  Q      4.211228   -6.316842   -2.105614
  Q      4.211228   -2.105614   -2.105614
  Q      4.211228    2.105614   -2.105614
  Q      4.211228    6.316842   -2.105614
  Q      4.211228   -8.422456    0.000000
  Q      4.211228   -4.211228    0.000000
  Q      4.211228    4.211228    0.000000
  Q      4.211228    8.422456    0.000000
  Q      4.211228   -6.316842    2.105614
  Q      4.211228   -2.105614    2.105614
  Q      4.211228    2.105614    2.105614
  Q      4.211228    6.316842    2.105614
  Q      4.211228   -8.422456    4.211228
  Q      4.211228   -4.211228    4.211228
  Q      4.211228    0.000000    4.211228
  Q      4.211228    4.211228    4.211228
  Q      4.211228    8.422456    4.211228
  Q      4.211228   -6.316842    6.316842
  Q      4.211228   -2.105614    6.316842
  Q      4.211228    2.105614    6.316842
  Q      4.211228    6.316842    6.316842
  Q      4.211228   -8.422456    8.422456
  Q      4.211228   -4.211228    8.422456
  Q      4.211228    0.000000    8.422456
  Q      4.211228    4.211228    8.422456
  Q      4.211228    8.422456    8.422456
  Q      6.316842   -6.316842   -8.422456
  Q      6.316842   -2.105614   -8.422456
  Q      6.316842    2.105614   -8.422456
  Q      6.316842    6.316842   -8.422456
  Q      6.316842   -8.422456   -6.316842
  Q      6.316842   -4.211228   -6.316842
  Q      6.316842    0.000000   -6.316842
  Q      6.316842    4.211228   -6.316842
  Q      6.316842    8.422456   -6.316842
  Q      6.316842   -6.316842   -4.211228
  Q      6.316842   -2.105614   -4.211228
  Q      6.316842    2.105614   -4.211228
  Q      6.316842    6.316842   -4.211228
  Q      6.316842   -8.422456   -2.105614
  Q      6.316842   -4.211228   -2.105614
  Q      6.316842    0.000000   -2.105614
  Q      6.316842    4.211228   -2.105614
  Q      6.316842    8.422456   -2.105614
  Q      6.316842   -6.316842    0.000000
  Q      6.316842   -2.105614    0.000000
  Q      6.316842    2.105614    0.000000
  Q      6.316842    6.316842    0.000000
  Q      6.316842   -8.422456    2.105614
  Q      6.316842   -4.211228    2.105614
  Q      6.316842    0.000000    2.105614
  Q      6.316842    4.211228    2.105614
  Q      6.316842    8.422456    2.105614
  Q      6.316842   -6.316842    4.211228
  Q      6.316842   -2.105614    4.211228
  Q      6.316842    2.105614    4.211228
  Q      6.316842    6.316842    4.211228
  Q      6.316842   -8.422456    6.316842
  Q      6.316842   -4.211228    6.316842
  Q      6.316842    0.000000    6.316842
  Q      6.316842    4.211228    6.316842
  Q      6.316842    8.422456    6.316842
  Q      6.316842   -6.316842    8.422456
  Q      6.316842   -2.105614    8.422456
  Q      6.316842    2.105614    8.422456
  Q      6.316842    6.316842    8.422456
  Q      8.422456   -8.422456   -8.422456
  Q      8.422456   -4.211228   -8.422456
  Q      8.422456    0.000000   -8.422456
  Q      8.422456    4.211228   -8.422456
  Q      8.422456    8.422456   -8.422456
  Q      8.422456   -6.316842   -6.316842
  Q      8.422456   -2.105614   -6.316842
  Q      8.422456    2.105614   -6.316842
  Q      8.422456    6.316842   -6.316842
  Q      8.422456   -8.422456   -4.211228
  Q      8.422456   -4.211228   -4.211228
  Q      8.422456    0.000000   -4.211228
  Q      8.422456    4.211228   -4.211228
  Q      8.422456    8.422456   -4.211228
  Q      8.422456   -6.316842   -2.105614
  Q      8.422456   -2.105614   -2.105614
  Q      8.422456    2.105614   -2.105614
  Q      8.422456    6.316842   -2.105614
  Q      8.422456   -8.422456    0.000000
  Q      8.422456   -4.211228    0.000000
  Q      8.422456    0.000000    0.000000
  Q      8.422456    4.211228    0.000000
  Q      8.422456    8.422456    0.000000
  Q      8.422456   -6.316842    2.105614
  Q      8.422456   -2.105614    2.105614
  Q      8.422456    2.105614    2.105614
  Q      8.422456    6.316842    2.105614
  Q      8.422456   -8.422456    4.211228
  Q      8.422456   -4.211228    4.211228
  Q      8.422456    0.000000    4.211228
  Q      8.422456    4.211228    4.211228
  Q      8.422456    8.422456    4.211228
  Q      8.422456   -6.316842    6.316842
  Q      8.422456   -2.105614    6.316842
  Q      8.422456    2.105614    6.316842
  Q      8.422456    6.316842    6.316842
  Q      8.422456   -8.422456    8.422456
  Q      8.422456   -4.211228    8.422456
  Q      8.422456    0.000000    8.422456
  Q      8.422456    4.211228    8.422456
  Q      8.422456    8.422456    8.422456

----------------------------
CARTESIAN COORDINATES (A.U.)
----------------------------
  NO LB      ZA    FRAG    MASS        X           Y           Z
   0 Fe   26.0000    0    55.850          0.000000000000000          0.000000000000000          0.000000000000000
   1 O     8.0000    0    15.999          3.979033992723076          0.000000000000000          0.000000000000000
   2 O     8.0000    0    15.999         -3.979033992723076          0.000000000000000          0.000000000000000
   3 O     8.0000    0    15.999          0.000000000000000          3.979033992723076          0.000000000000000
   4 O     8.0000    0    15.999          0.000000000000000         -3.979033992723076          0.000000000000000
   5 O     8.0000    0    15.999          0.000000000000000          0.000000000000000          3.979033992723076
   6 O     8.0000    0    15.999          0.000000000000000          0.000000000000000         -3.979033992723076
   7 Mg   12.0000    0    24.305          3.979033992723076          3.979033992723076          0.000000000000000
   8 Mg   12.0000    0    24.305          3.979033992723076         -3.979033992723076          0.000000000000000
   9 Mg   12.0000    0    24.305         -3.979033992723076          3.979033992723076          0.000000000000000
  10 Mg   12.0000    0    24.305         -3.979033992723076         -3.979033992723076          0.000000000000000
  11 Mg   12.0000    0    24.305          3.979033992723076          0.000000000000000          3.979033992723076
  12 Mg   12.0000    0    24.305          3.979033992723076          0.000000000000000         -3.979033992723076
  13 Mg   12.0000    0    24.305         -3.979033992723076          0.000000000000000          3.979033992723076
  14 Mg   12.0000    0    24.305         -3.979033992723076          0.000000000000000         -3.979033992723076
  15 Mg>   2.0000    0     0.000    0.000000    3.979034    3.979034
  16 Mg>   2.0000    0     0.000    0.000000    3.979034   -3.979034
  17 Mg>   2.0000    0     0.000    0.000000   -3.979034    3.979034
  18 Mg>   2.0000    0     0.000    0.000000   -3.979034   -3.979034
  19 Mg>   2.0000    0     0.000    7.958068    0.000000    0.000000
  20 Mg>   2.0000    0     0.000   -7.958068    0.000000    0.000000
  21 Mg>   2.0000    0     0.000    0.000000    7.958068    0.000000
  22 Mg>   2.0000    0     0.000    0.000000   -7.958068    0.000000
  23 Mg>   2.0000    0     0.000    0.000000    0.000000    7.958068
  24 Mg>   2.0000    0     0.000    0.000000    0.000000   -7.958068
  25 Q    -2.0000    0     0.000        -15.916135970892302        -11.937101978169228        -15.916135970892302
  26 Q    -2.0000    0     0.000        -15.916135970892302         -3.979033992723076        -15.916135970892302
  27 Q    -2.0000    0     0.000        -15.916135970892302          3.979033992723076        -15.916135970892302
  28 Q    -2.0000    0     0.000        -15.916135970892302         11.937101978169228        -15.916135970892302
  29 Q    -2.0000    0     0.000        -15.916135970892302        -15.916135970892302        -11.937101978169228
  30 Q    -2.0000    0     0.000        -15.916135970892302         -7.958067985446151        -11.937101978169228
  31 Q    -2.0000    0     0.000        -15.916135970892302          0.000000000000000        -11.937101978169228
  32 Q    -2.0000    0     0.000        -15.916135970892302          7.958067985446151        -11.937101978169228
  33 Q    -2.0000    0     0.000        -15.916135970892302         15.916135970892302        -11.937101978169228
  34 Q    -2.0000    0     0.000        -15.916135970892302        -11.937101978169228         -7.958067985446151
  35 Q    -2.0000    0     0.000        -15.916135970892302         -3.979033992723076         -7.958067985446151
  36 Q    -2.0000    0     0.000        -15.916135970892302          3.979033992723076         -7.958067985446151
  37 Q    -2.0000    0     0.000        -15.916135970892302         11.937101978169228         -7.958067985446151
  38 Q    -2.0000    0     0.000        -15.916135970892302        -15.916135970892302         -3.979033992723076
  39 Q    -2.0000    0     0.000        -15.916135970892302         -7.958067985446151         -3.979033992723076
  40 Q    -2.0000    0     0.000        -15.916135970892302          0.000000000000000         -3.979033992723076
  41 Q    -2.0000    0     0.000        -15.916135970892302          7.958067985446151         -3.979033992723076
  42 Q    -2.0000    0     0.000        -15.916135970892302         15.916135970892302         -3.979033992723076
  43 Q    -2.0000    0     0.000        -15.916135970892302        -11.937101978169228          0.000000000000000
  44 Q    -2.0000    0     0.000        -15.916135970892302         -3.979033992723076          0.000000000000000
  45 Q    -2.0000    0     0.000        -15.916135970892302          3.979033992723076          0.000000000000000
  46 Q    -2.0000    0     0.000        -15.916135970892302         11.937101978169228          0.000000000000000
  47 Q    -2.0000    0     0.000        -15.916135970892302        -15.916135970892302          3.979033992723076
  48 Q    -2.0000    0     0.000        -15.916135970892302         -7.958067985446151          3.979033992723076
  49 Q    -2.0000    0     0.000        -15.916135970892302          0.000000000000000          3.979033992723076
  50 Q    -2.0000    0     0.000        -15.916135970892302          7.958067985446151          3.979033992723076
  51 Q    -2.0000    0     0.000        -15.916135970892302         15.916135970892302          3.979033992723076
  52 Q    -2.0000    0     0.000        -15.916135970892302        -11.937101978169228          7.958067985446151
  53 Q    -2.0000    0     0.000        -15.916135970892302         -3.979033992723076          7.958067985446151
  54 Q    -2.0000    0     0.000        -15.916135970892302          3.979033992723076          7.958067985446151
  55 Q    -2.0000    0     0.000        -15.916135970892302         11.937101978169228          7.958067985446151
  56 Q    -2.0000    0     0.000        -15.916135970892302        -15.916135970892302         11.937101978169228
  57 Q    -2.0000    0     0.000        -15.916135970892302         -7.958067985446151         11.937101978169228
  58 Q    -2.0000    0     0.000        -15.916135970892302          0.000000000000000         11.937101978169228
  59 Q    -2.0000    0     0.000        -15.916135970892302          7.958067985446151         11.937101978169228
  60 Q    -2.0000    0     0.000        -15.916135970892302         15.916135970892302         11.937101978169228
  61 Q    -2.0000    0     0.000        -15.916135970892302        -11.937101978169228         15.916135970892302
  62 Q    -2.0000    0     0.000        -15.916135970892302         -3.979033992723076         15.916135970892302
  63 Q    -2.0000    0     0.000        -15.916135970892302          3.979033992723076         15.916135970892302
  64 Q    -2.0000    0     0.000        -15.916135970892302         11.937101978169228         15.916135970892302
  65 Q    -2.0000    0     0.000        -11.937101978169228        -15.916135970892302        -15.916135970892302
  66 Q    -2.0000    0     0.000        -11.937101978169228         -7.958067985446151        -15.916135970892302
  67 Q    -2.0000    0     0.000        -11.937101978169228          0.000000000000000        -15.916135970892302
  68 Q    -2.0000    0     0.000        -11.937101978169228          7.958067985446151        -15.916135970892302
  69 Q    -2.0000    0     0.000        -11.937101978169228         15.916135970892302        -15.916135970892302
  70 Q    -2.0000    0     0.000        -11.937101978169228        -11.937101978169228        -11.937101978169228
  71 Q    -2.0000    0     0.000        -11.937101978169228         -3.979033992723076        -11.937101978169228
  72 Q    -2.0000    0     0.000        -11.937101978169228          3.979033992723076        -11.937101978169228
  73 Q    -2.0000    0     0.000        -11.937101978169228         11.937101978169228        -11.937101978169228
  74 Q    -2.0000    0     0.000        -11.937101978169228        -15.916135970892302         -7.958067985446151
  75 Q    -2.0000    0     0.000        -11.937101978169228         -7.958067985446151         -7.958067985446151
  76 Q    -2.0000    0     0.000        -11.937101978169228          0.000000000000000         -7.958067985446151
  77 Q    -2.0000    0     0.000        -11.937101978169228          7.958067985446151         -7.958067985446151
  78 Q    -2.0000    0     0.000        -11.937101978169228         15.916135970892302         -7.958067985446151
  79 Q    -2.0000    0     0.000        -11.937101978169228        -11.937101978169228         -3.979033992723076
  80 Q    -2.0000    0     0.000        -11.937101978169228         -3.979033992723076         -3.979033992723076
  81 Q    -2.0000    0     0.000        -11.937101978169228          3.979033992723076         -3.979033992723076
  82 Q    -2.0000    0     0.000        -11.937101978169228         11.937101978169228         -3.979033992723076
  83 Q    -2.0000    0     0.000        -11.937101978169228        -15.916135970892302          0.000000000000000
  84 Q    -2.0000    0     0.000        -11.937101978169228         -7.958067985446151          0.000000000000000
  85 Q    -2.0000    0     0.000        -11.937101978169228          0.000000000000000          0.000000000000000
  86 Q    -2.0000    0     0.000        -11.937101978169228          7.958067985446151          0.000000000000000
  87 Q    -2.0000    0     0.000        -11.937101978169228         15.916135970892302          0.000000000000000
  88 Q    -2.0000    0     0.000        -11.937101978169228        -11.937101978169228          3.979033992723076
  89 Q    -2.0000    0     0.000        -11.937101978169228         -3.979033992723076          3.979033992723076
  90 Q    -2.0000    0     0.000        -11.937101978169228          3.979033992723076          3.979033992723076
  91 Q    -2.0000    0     0.000        -11.937101978169228         11.937101978169228          3.979033992723076
  92 Q    -2.0000    0     0.000        -11.937101978169228        -15.916135970892302          7.958067985446151
  93 Q    -2.0000    0     0.000        -11.937101978169228         -7.958067985446151          7.958067985446151
  94 Q    -2.0000    0     0.000        -11.937101978169228          0.000000000000000          7.958067985446151
  95 Q    -2.0000    0     0.000        -11.937101978169228          7.958067985446151          7.958067985446151
  96 Q    -2.0000    0     0.000        -11.937101978169228         15.916135970892302          7.958067985446151
  97 Q    -2.0000    0     0.000        -11.937101978169228        -11.937101978169228         11.937101978169228
  98 Q    -2.0000    0     0.000        -11.937101978169228         -3.979033992723076         11.937101978169228
  99 Q    -2.0000    0     0.000        -11.937101978169228          3.979033992723076         11.937101978169228
 100 Q    -2.0000    0     0.000        -11.937101978169228         11.937101978169228         11.937101978169228
 101 Q    -2.0000    0     0.000        -11.937101978169228        -15.916135970892302         15.916135970892302
 102 Q    -2.0000    0     0.000        -11.937101978169228         -7.958067985446151         15.916135970892302
 103 Q    -2.0000    0     0.000        -11.937101978169228          0.000000000000000         15.916135970892302
 104 Q    -2.0000    0     0.000        -11.937101978169228          7.958067985446151         15.916135970892302
 105 Q    -2.0000    0     0.000        -11.937101978169228         15.916135970892302         15.916135970892302
 106 Q    -2.0000    0     0.000         -7.958067985446151        -11.937101978169228        -15.916135970892302
 107 Q    -2.0000    0     0.000         -7.958067985446151         -3.979033992723076        -15.916135970892302
 108 Q    -2.0000    0     0.000         -7.958067985446151          3.979033992723076        -15.916135970892302
 109 Q    -2.0000    0     0.000         -7.958067985446151         11.937101978169228        -15.916135970892302
 110 Q    -2.0000    0     0.000         -7.958067985446151        -15.916135970892302        -11.937101978169228
 111 Q    -2.0000    0     0.000         -7.958067985446151         -7.958067985446151        -11.937101978169228
 112 Q    -2.0000    0     0.000         -7.958067985446151          0.000000000000000        -11.937101978169228
 113 Q    -2.0000    0     0.000         -7.958067985446151          7.958067985446151        -11.937101978169228
[...]
      dxz     :     0.064021
      dyz     :     0.030378
      dx2y2   :     0.070371
      dxy     :     0.035432
 13 Mgs       :     4.086398  s :     4.086398
      pz      :     2.153916  p :     6.363312
      px      :     2.161729
      py      :     2.047667
      dz2     :     0.112294  d :     0.312497
      dxz     :     0.064021
      dyz     :     0.030378
      dx2y2   :     0.070371
      dxy     :     0.035432
 14 Mgs       :     4.086398  s :     4.086398
      pz      :     2.153916  p :     6.363312
      px      :     2.161729
      py      :     2.047667
      dz2     :     0.112294  d :     0.312497
      dxz     :     0.064021
      dyz     :     0.030378
      dx2y2   :     0.070371
      dxy     :     0.035432
 15 Q  16 Q  17 Q  18 Q  19 Q  20 Q  21 Q  22 Q  23 Q  24 Q  25 Q  26 Q  27 Q  28 Q  29 Q  30 Q  31 Q  32 Q  33 Q  34 Q  35 Q  36 Q  37 Q  38 Q  39 Q  40 Q  41 Q  42 Q  43 Q  44 Q  45 Q  46 Q  47 Q  48 Q  49 Q  50 Q  51 Q  52 Q  53 Q  54 Q  55 Q  56 Q  57 Q  58 Q  59 Q  60 Q  61 Q  62 Q  63 Q  64 Q  65 Q  66 Q  67 Q  68 Q  69 Q  70 Q  71 Q  72 Q  73 Q  74 Q  75 Q  76 Q  77 Q  78 Q  79 Q  80 Q  81 Q  82 Q  83 Q  84 Q  85 Q  86 Q  87 Q  88 Q  89 Q  90 Q  91 Q  92 Q  93 Q  94 Q  95 Q  96 Q  97 Q  98 Q  99 Q 100 Q 101 Q 102 Q 103 Q 104 Q 105 Q 106 Q 107 Q 108 Q 109 Q 110 Q 111 Q 112 Q 113 Q 114 Q 115 Q 116 Q 117 Q 118 Q 119 Q 120 Q 121 Q 122 Q 123 Q 124 Q 125 Q 126 Q 127 Q 128 Q 129 Q 130 Q 131 Q 132 Q 133 Q 134 Q 135 Q 136 Q 137 Q 138 Q 139 Q 140 Q 141 Q 142 Q 143 Q 144 Q 145 Q 146 Q 147 Q 148 Q 149 Q 150 Q 151 Q 152 Q 153 Q 154 Q 155 Q 156 Q 157 Q 158 Q 159 Q 160 Q 161 Q 162 Q 163 Q 164 Q 165 Q 166 Q 167 Q 168 Q 169 Q 170 Q 171 Q 172 Q 173 Q 174 Q 175 Q 176 Q 177 Q 178 Q 179 Q 180 Q 181 Q 182 Q 183 Q 184 Q 185 Q 186 Q 187 Q 188 Q 189 Q 190 Q 191 Q 192 Q 193 Q 194 Q 195 Q 196 Q 197 Q 198 Q 199 Q 200 Q 201 Q 202 Q 203 Q 204 Q 205 Q 206 Q 207 Q 208 Q 209 Q 210 Q 211 Q 212 Q 213 Q 214 Q 215 Q 216 Q 217 Q 218 Q 219 Q 220 Q 221 Q 222 Q 223 Q 224 Q 225 Q 226 Q 227 Q 228 Q 229 Q 230 Q 231 Q 232 Q 233 Q 234 Q 235 Q 236 Q 237 Q 238 Q 239 Q 240 Q 241 Q 242 Q 243 Q 244 Q 245 Q 246 Q 247 Q 248 Q 249 Q 250 Q 251 Q 252 Q 253 Q 254 Q 255 Q 256 Q 257 Q 258 Q 259 Q 260 Q 261 Q 262 Q 263 Q 264 Q 265 Q 266 Q 267 Q 268 Q 269 Q 270 Q 271 Q 272 Q 273 Q 274 Q 275 Q 276 Q 277 Q 278 Q 279 Q 280 Q 281 Q 282 Q 283 Q 284 Q 285 Q 286 Q 287 Q 288 Q 289 Q 290 Q 291 Q 292 Q 293 Q 294 Q 295 Q 296 Q 297 Q 298 Q 299 Q 300 Q 301 Q 302 Q 303 Q 304 Q 305 Q 306 Q 307 Q 308 Q 309 Q 310 Q 311 Q 312 Q 313 Q 314 Q 315 Q 316 Q 317 Q 318 Q 319 Q 320 Q 321 Q 322 Q 323 Q 324 Q 325 Q 326 Q 327 Q 328 Q 329 Q 330 Q 331 Q 332 Q 333 Q 334 Q 335 Q 336 Q 337 Q 338 Q 339 Q 340 Q 341 Q 342 Q 343 Q 344 Q 345 Q 346 Q 347 Q 348 Q 349 Q 350 Q 351 Q 352 Q 353 Q 354 Q 355 Q 356 Q 357 Q 358 Q 359 Q 360 Q 361 Q 362 Q 363 Q 364 Q 365 Q 366 Q 367 Q 368 Q 369 Q 370 Q 371 Q 372 Q 373 Q 374 Q 375 Q 376 Q 377 Q 378 Q 379 Q 380 Q 381 Q 382 Q 383 Q 384 Q 385 Q 386 Q 387 Q 388 Q 389 Q 390 Q 391 Q 392 Q 393 Q 394 Q 395 Q 396 Q 397 Q 398 Q 399 Q 400 Q 401 Q 402 Q 403 Q 404 Q 405 Q 406 Q 407 Q 408 Q 409 Q 410 Q 411 Q 412 Q 413 Q 414 Q 415 Q 416 Q 417 Q 418 Q 419 Q 420 Q 421 Q 422 Q 423 Q 424 Q 425 Q 426 Q 427 Q 428 Q 429 Q 430 Q 431 Q 432 Q 433 Q 434 Q 435 Q 436 Q 437 Q 438 Q 439 Q 440 Q 441 Q 442 Q 443 Q 444 Q 445 Q 446 Q 447 Q 448 Q 449 Q 450 Q 451 Q 452 Q 453 Q 454 Q 455 Q 456 Q 457 Q 458 Q 459 Q 460 Q 461 Q 462 Q 463 Q 464 Q 465 Q 466 Q 467 Q 468 Q 469 Q 470 Q 471 Q 472 Q 473 Q 474 Q 475 Q 476 Q 477 Q 478 Q 479 Q 480 Q 481 Q 482 Q 483 Q 484 Q 485 Q 486 Q 487 Q 488 Q 489 Q 490 Q 491 Q 492 Q 493 Q 494 Q 495 Q 496 Q 497 Q 498 Q 499 Q 500 Q 501 Q 502 Q 503 Q 504 Q 505 Q 506 Q 507 Q 508 Q 509 Q 510 Q 511 Q 512 Q 513 Q 514 Q 515 Q 516 Q 517 Q 518 Q 519 Q 520 Q 521 Q 522 Q 523 Q 524 Q 525 Q 526 Q 527 Q 528 Q 529 Q 530 Q 531 Q 532 Q 533 Q 534 Q 535 Q 536 Q 537 Q 538 Q 539 Q 540 Q 541 Q 542 Q 543 Q 544 Q 545 Q 546 Q 547 Q 548 Q 549 Q 550 Q 551 Q 552 Q 553 Q 554 Q 555 Q 556 Q 557 Q 558 Q 559 Q 560 Q 561 Q 562 Q 563 Q 564 Q 565 Q 566 Q 567 Q 568 Q 569 Q 570 Q 571 Q 572 Q 573 Q 574 Q 575 Q 576 Q 577 Q 578 Q 579 Q 580 Q 581 Q 582 Q 583 Q 584 Q 585 Q 586 Q 587 Q 588 Q 589 Q 590 Q 591 Q 592 Q 593 Q 594 Q 595 Q 596 Q 597 Q 598 Q 599 Q 600 Q 601 Q 602 Q 603 Q 604 Q 605 Q 606 Q 607 Q 608 Q 609 Q 610 Q 611 Q 612 Q 613 Q 614 Q 615 Q 616 Q 617 Q 618 Q 619 Q 620 Q 621 Q 622 Q 623 Q 624 Q 625 Q 626 Q 627 Q 628 Q 629 Q 630 Q 631 Q 632 Q 633 Q 634 Q 635 Q 636 Q 637 Q 638 Q 639 Q 640 Q 641 Q 642 Q 643 Q 644 Q 645 Q 646 Q 647 Q 648 Q 649 Q 650 Q 651 Q 652 Q 653 Q 654 Q 655 Q 656 Q 657 Q 658 Q 659 Q 660 Q 661 Q 662 Q 663 Q 664 Q 665 Q 666 Q 667 Q 668 Q 669 Q 670 Q 671 Q 672 Q 673 Q 674 Q 675 Q 676 Q 677 Q 678 Q 679 Q 680 Q 681 Q 682 Q 683 Q 684 Q 685 Q 686 Q 687 Q 688 Q 689 Q 690 Q 691 Q 692 Q 693 Q 694 Q 695 Q 696 Q 697 Q 698 Q 699 Q 700 Q 701 Q 702 Q 703 Q 704 Q 705 Q 706 Q 707 Q 708 Q 709 Q 710 Q 711 Q 712 Q 713 Q 714 Q 715 Q 716 Q 717 Q 718 Q 719 Q 720 Q 721 Q 722 Q 723 Q 724 Q 725 Q 726 Q 727 Q 728 Q 
SPIN
  0 Fes       :     0.010047  s :     0.010047
      pz      :     0.002969  p :     0.011928
      px      :     0.005990
      py      :     0.002969
      dz2     :     0.919496  d :     3.759057
      dxz     :     0.956698
      dyz     :     0.011803
      dx2y2   :     0.914362
      dxy     :     0.956698
      f0      :     0.000943  f :     0.007627
      f+1     :     0.001469
      f-1     :     0.000398
      f+2     :     0.000911
      f-2     :     0.001020
      f+3     :     0.001428
      f-3     :     0.001457
  1 O s       :     0.005320  s :     0.005320
      pz      :     0.008142  p :     0.032894
      px      :     0.016610
      py      :     0.008142
      dz2     :     0.000203  d :     0.001169
      dxz     :     0.000192
      dyz     :     0.000020
      dx2y2   :     0.000562
      dxy     :     0.000192
  2 O s       :     0.005320  s :     0.005320
      pz      :     0.008142  p :     0.032894
      px      :     0.016610
      py      :     0.008142
      dz2     :     0.000203  d :     0.001169
      dxz     :     0.000192
      dyz     :     0.000020
      dx2y2   :     0.000562
      dxy     :     0.000192
  3 O s       :     0.004996  s :     0.004996
      pz      :    -0.000936  p :     0.024378
      px      :     0.008418
      py      :     0.016896
      dz2     :     0.000195  d :     0.000884
      dxz     :     0.000018
      dyz     :    -0.000123
      dx2y2   :     0.000600
      dxy     :     0.000195
  4 O s       :     0.004996  s :     0.004996
      pz      :    -0.000936  p :     0.024378
      px      :     0.008418
      py      :     0.016896
      dz2     :     0.000195  d :     0.000884
      dxz     :     0.000018
      dyz     :    -0.000123
      dx2y2   :     0.000600
      dxy     :     0.000195
  5 O s       :     0.004996  s :     0.004996
      pz      :     0.016896  p :     0.024378
      px      :     0.008418
      py      :    -0.000936
      dz2     :     0.000785  d :     0.000884
      dxz     :     0.000195
      dyz     :    -0.000123
      dx2y2   :     0.000010
      dxy     :     0.000018
  6 O s       :     0.004996  s :     0.004996
      pz      :     0.016896  p :     0.024378
      px      :     0.008418
      py      :    -0.000936
      dz2     :     0.000785  d :     0.000884
      dxz     :     0.000195
      dyz     :    -0.000123
      dx2y2   :     0.000010
      dxy     :     0.000018
  7 Mgs       :     0.000446  s :     0.000446
      pz      :    -0.000540  p :    -0.000488
      px      :    -0.000023
      py      :     0.000075
      dz2     :     0.000023  d :     0.001485
      dxz     :     0.000040
      dyz     :    -0.000333
      dx2y2   :    -0.000142
      dxy     :     0.001897
  8 Mgs       :     0.000446  s :     0.000446
      pz      :    -0.000540  p :    -0.000488
      px      :    -0.000023
      py      :     0.000075
      dz2     :     0.000023  d :     0.001485
      dxz     :     0.000040
      dyz     :    -0.000333
      dx2y2   :    -0.000142
      dxy     :     0.001897
  9 Mgs       :     0.000446  s :     0.000446
      pz      :    -0.000540  p :    -0.000488
      px      :    -0.000023
      py      :     0.000075
      dz2     :     0.000023  d :     0.001485
      dxz     :     0.000040
      dyz     :    -0.000333
      dx2y2   :    -0.000142
      dxy     :     0.001897
 10 Mgs       :     0.000446  s :     0.000446
      pz      :    -0.000540  p :    -0.000488
      px      :    -0.000023
      py      :     0.000075
      dz2     :     0.000023  d :     0.001485
      dxz     :     0.000040
      dyz     :    -0.000333
      dx2y2   :    -0.000142
      dxy     :     0.001897
 11 Mgs       :     0.000446  s :     0.000446
      pz      :     0.000075  p :    -0.000488
      px      :    -0.000023
      py      :    -0.000540
      dz2     :    -0.000106  d :     0.001485
      dxz     :     0.001897
      dyz     :    -0.000333
      dx2y2   :    -0.000013
      dxy     :     0.000040
 12 Mgs       :     0.000446  s :     0.000446
      pz      :     0.000075  p :    -0.000488
      px      :    -0.000023
      py      :    -0.000540
      dz2     :    -0.000106  d :     0.001485
      dxz     :     0.001897
      dyz     :    -0.000333
      dx2y2   :    -0.000013
      dxy     :     0.000040
 13 Mgs       :     0.000446  s :     0.000446
      pz      :     0.000075  p :    -0.000488
      px      :    -0.000023
      py      :    -0.000540
      dz2     :    -0.000106  d :     0.001485
      dxz     :     0.001897
      dyz     :    -0.000333
      dx2y2   :    -0.000013
      dxy     :     0.000040
 14 Mgs       :     0.000446  s :     0.000446
      pz      :     0.000075  p :    -0.000488
      px      :    -0.000023
      py      :    -0.000540
      dz2     :    -0.000106  d :     0.001485
      dxz     :     0.001897
      dyz     :    -0.000333
      dx2y2   :    -0.000013
      dxy     :     0.000040
 15 Q  16 Q  17 Q  18 Q  19 Q  20 Q  21 Q  22 Q  23 Q  24 Q  25 Q  26 Q  27 Q  28 Q  29 Q  30 Q  31 Q  32 Q  33 Q  34 Q  35 Q  36 Q  37 Q  38 Q  39 Q  40 Q  41 Q  42 Q  43 Q  44 Q  45 Q  46 Q  47 Q  48 Q  49 Q  50 Q  51 Q  52 Q  53 Q  54 Q  55 Q  56 Q  57 Q  58 Q  59 Q  60 Q  61 Q  62 Q  63 Q  64 Q  65 Q  66 Q  67 Q  68 Q  69 Q  70 Q  71 Q  72 Q  73 Q  74 Q  75 Q  76 Q  77 Q  78 Q  79 Q  80 Q  81 Q  82 Q  83 Q  84 Q  85 Q  86 Q  87 Q  88 Q  89 Q  90 Q  91 Q  92 Q  93 Q  94 Q  95 Q  96 Q  97 Q  98 Q  99 Q 100 Q 101 Q 102 Q 103 Q 104 Q 105 Q 106 Q 107 Q 108 Q 109 Q 110 Q 111 Q 112 Q 113 Q 114 Q 115 Q 116 Q 117 Q 118 Q 119 Q 120 Q 121 Q 122 Q 123 Q 124 Q 125 Q 126 Q 127 Q 128 Q 129 Q 130 Q 131 Q 132 Q 133 Q 134 Q 135 Q 136 Q 137 Q 138 Q 139 Q 140 Q 141 Q 142 Q 143 Q 144 Q 145 Q 146 Q 147 Q 148 Q 149 Q 150 Q 151 Q 152 Q 153 Q 154 Q 155 Q 156 Q 157 Q 158 Q 159 Q 160 Q 161 Q 162 Q 163 Q 164 Q 165 Q 166 Q 167 Q 168 Q 169 Q 170 Q 171 Q 172 Q 173 Q 174 Q 175 Q 176 Q 177 Q 178 Q 179 Q 180 Q 181 Q 182 Q 183 Q 184 Q 185 Q 186 Q 187 Q 188 Q 189 Q 190 Q 191 Q 192 Q 193 Q 194 Q 195 Q 196 Q 197 Q 198 Q 199 Q 200 Q 201 Q 202 Q 203 Q 204 Q 205 Q 206 Q 207 Q 208 Q 209 Q 210 Q 211 Q 212 Q 213 Q 214 Q 215 Q 216 Q 217 Q 218 Q 219 Q 220 Q 221 Q 222 Q 223 Q 224 Q 225 Q 226 Q 227 Q 228 Q 229 Q 230 Q 231 Q 232 Q 233 Q 234 Q 235 Q 236 Q 237 Q 238 Q 239 Q 240 Q 241 Q 242 Q 243 Q 244 Q 245 Q 246 Q 247 Q 248 Q 249 Q 250 Q 251 Q 252 Q 253 Q 254 Q 255 Q 256 Q 257 Q 258 Q 259 Q 260 Q 261 Q 262 Q 263 Q 264 Q 265 Q 266 Q 267 Q 268 Q 269 Q 270 Q 271 Q 272 Q 273 Q 274 Q 275 Q 276 Q 277 Q 278 Q 279 Q 280 Q 281 Q 282 Q 283 Q 284 Q 285 Q 286 Q 287 Q 288 Q 289 Q 290 Q 291 Q 292 Q 293 Q 294 Q 295 Q 296 Q 297 Q 298 Q 299 Q 300 Q 301 Q 302 Q 303 Q 304 Q 305 Q 306 Q 307 Q 308 Q 309 Q 310 Q 311 Q 312 Q 313 Q 314 Q 315 Q 316 Q 317 Q 318 Q 319 Q 320 Q 321 Q 322 Q 323 Q 324 Q 325 Q 326 Q 327 Q 328 Q 329 Q 330 Q 331 Q 332 Q 333 Q 334 Q 335 Q 336 Q 337 Q 338 Q 339 Q 340 Q 341 Q 342 Q 343 Q 344 Q 345 Q 346 Q 347 Q 348 Q 349 Q 350 Q 351 Q 352 Q 353 Q 354 Q 355 Q 356 Q 357 Q 358 Q 359 Q 360 Q 361 Q 362 Q 363 Q 364 Q 365 Q 366 Q 367 Q 368 Q 369 Q 370 Q 371 Q 372 Q 373 Q 374 Q 375 Q 376 Q 377 Q 378 Q 379 Q 380 Q 381 Q 382 Q 383 Q 384 Q 385 Q 386 Q 387 Q 388 Q 389 Q 390 Q 391 Q 392 Q 393 Q 394 Q 395 Q 396 Q 397 Q 398 Q 399 Q 400 Q 401 Q 402 Q 403 Q 404 Q 405 Q 406 Q 407 Q 408 Q 409 Q 410 Q 411 Q 412 Q 413 Q 414 Q 415 Q 416 Q 417 Q 418 Q 419 Q 420 Q 421 Q 422 Q 423 Q 424 Q 425 Q 426 Q 427 Q 428 Q 429 Q 430 Q 431 Q 432 Q 433 Q 434 Q 435 Q 436 Q 437 Q 438 Q 439 Q 440 Q 441 Q 442 Q 443 Q 444 Q 445 Q 446 Q 447 Q 448 Q 449 Q 450 Q 451 Q 452 Q 453 Q 454 Q 455 Q 456 Q 457 Q 458 Q 459 Q 460 Q 461 Q 462 Q 463 Q 464 Q 465 Q 466 Q 467 Q 468 Q 469 Q 470 Q 471 Q 472 Q 473 Q 474 Q 475 Q 476 Q 477 Q 478 Q 479 Q 480 Q 481 Q 482 Q 483 Q 484 Q 485 Q 486 Q 487 Q 488 Q 489 Q 490 Q 491 Q 492 Q 493 Q 494 Q 495 Q 496 Q 497 Q 498 Q 499 Q 500 Q 501 Q 502 Q 503 Q 504 Q 505 Q 506 Q 507 Q 508 Q 509 Q 510 Q 511 Q 512 Q 513 Q 514 Q 515 Q 516 Q 517 Q 518 Q 519 Q 520 Q 521 Q 522 Q 523 Q 524 Q 525 Q 526 Q 527 Q 528 Q 529 Q 530 Q 531 Q 532 Q 533 Q 534 Q 535 Q 536 Q 537 Q 538 Q 539 Q 540 Q 541 Q 542 Q 543 Q 544 Q 545 Q 546 Q 547 Q 548 Q 549 Q 550 Q 551 Q 552 Q 553 Q 554 Q 555 Q 556 Q 557 Q 558 Q 559 Q 560 Q 561 Q 562 Q 563 Q 564 Q 565 Q 566 Q 567 Q 568 Q 569 Q 570 Q 571 Q 572 Q 573 Q 574 Q 575 Q 576 Q 577 Q 578 Q 579 Q 580 Q 581 Q 582 Q 583 Q 584 Q 585 Q 586 Q 587 Q 588 Q 589 Q 590 Q 591 Q 592 Q 593 Q 594 Q 595 Q 596 Q 597 Q 598 Q 599 Q 600 Q 601 Q 602 Q 603 Q 604 Q 605 Q 606 Q 607 Q 608 Q 609 Q 610 Q 611 Q 612 Q 613 Q 614 Q 615 Q 616 Q 617 Q 618 Q 619 Q 620 Q 621 Q 622 Q 623 Q 624 Q 625 Q 626 Q 627 Q 628 Q 629 Q 630 Q 631 Q 632 Q 633 Q 634 Q 635 Q 636 Q 637 Q 638 Q 639 Q 640 Q 641 Q 642 Q 643 Q 644 Q 645 Q 646 Q 647 Q 648 Q 649 Q 650 Q 651 Q 652 Q 653 Q 654 Q 655 Q 656 Q 657 Q 658 Q 659 Q 660 Q 661 Q 662 Q 663 Q 664 Q 665 Q 666 Q 667 Q 668 Q 669 Q 670 Q 671 Q 672 Q 673 Q 674 Q 675 Q 676 Q 677 Q 678 Q 679 Q 680 Q 681 Q 682 Q 683 Q 684 Q 685 Q 686 Q 687 Q 688 Q 689 Q 690 Q 691 Q 692 Q 693 Q 694 Q 695 Q 696 Q 697 Q 698 Q 699 Q 700 Q 701 Q 702 Q 703 Q 704 Q 705 Q 706 Q 707 Q 708 Q 709 Q 710 Q 711 Q 712 Q 713 Q 714 Q 715 Q 716 Q 717 Q 718 Q 719 Q 720 Q 721 Q 722 Q 723 Q 724 Q 725 Q 726 Q 727 Q 728 Q 
-------
TIMINGS
-------

Total execution time                   ...     9340.362 sec

Fock Matrix Formation                  ...      104.898 sec (  1.1%)
First Half Transformation              ...      600.383 sec (  6.4%)
Second Half Transformation             ...       10.281 sec (  0.1%)
Initial Guess                          ...        0.608 sec (  0.0%)
DIIS Solver                            ...       45.944 sec (  0.5%)
State Vector Update                    ...        4.142 sec (  0.0%)
Sigma-vector construction              ...     5371.911 sec ( 57.5%)
  <0|H|D>                              ...        0.428 sec (  0.0% of sigma)
  <D|H|D>(0-ext Fock)                  ...       10.903 sec (  0.2% of sigma)
  <D|H|D>(0-ext)                       ...      145.924 sec (  2.7% of sigma)
  <D|H|D>(2-ext Fock)                  ...        3.404 sec (  0.1% of sigma)
  <D|H|D>(2-ext)                       ...      390.437 sec (  7.3% of sigma)
  <D|H|D>(4-ext)                       ...     1719.913 sec ( 32.0% of sigma)
  <S|H|0>                              ...     1317.170 sec ( 24.5% of sigma)
  <S|H|S>                              ...        0.009 sec (  0.0% of sigma)
  <S|H|D>(1-ext)                       ...        2.748 sec (  0.1% of sigma)
  <D|H|S>(1-ext)                       ...       19.587 sec (  0.4% of sigma)
  Fock-dressing                        ...     1167.365 sec ( 21.7% of sigma)
  (ik|jl)-dressing                     ...      151.768 sec (  2.8% of sigma)
  (ij|ab),(ia|jb)-dressing             ...      431.219 sec (  8.0% of sigma)
  Pair energies                        ...        0.302 sec (  0.0% of sigma)
  Shift terms                          ...        0.002 sec (  0.0% of sigma)
Total Time for computing (T)           ...     3188.824 sec ( 34.1% of ALL)
  I/O of integral and amplitudes       ...      380.278 sec ( 11.9% of (T))
  External N**7 contributions          ...     2126.597 sec ( 66.7% of (T))
  Internal N**7 contributions          ...      332.634 sec ( 10.4% of (T))
  N**6 triples energy contributions    ...      345.610 sec ( 10.8% of (T))

           ************************************************************
           *              Shut down parallel processing               *
           ************************************************************

-------------------------   --------------------
FINAL SINGLE POINT ENERGY     -3921.207756836048
-------------------------   --------------------


                            ***************************************
                            *     ORCA property calculations      *
                            ***************************************

                                    ---------------------
                                    Active property flags
                                    ---------------------
   (+) Dipole Moment


------------------------------------------------------------------------------
                       ORCA ELECTRIC PROPERTIES CALCULATION
------------------------------------------------------------------------------

Dipole Moment Calculation                       ... on
Quadrupole Moment Calculation                   ... off
Polarizability Calculation                      ... off
GBWName                                         ... orca.gbw
Electron density file                           ... orca.scfp.tmp

-------------
DIPOLE MOMENT
-------------
                                X             Y             Z
Electronic contribution:     -0.00000      -0.00000      -0.00000
Nuclear contribution   :     -0.00000       0.00000      -0.00000
                        -----------------------------------------
Total Dipole Moment    :     -0.00000      -0.00000      -0.00000
                        -----------------------------------------
Magnitude (a.u.)       :      0.00000
Magnitude (Debye)      :      0.00000


                           *** MDCI DENSITY ***

------------------------------------------------------------------------------
                       ORCA ELECTRIC PROPERTIES CALCULATION
------------------------------------------------------------------------------

Dipole Moment Calculation                       ... on
Quadrupole Moment Calculation                   ... off
Polarizability Calculation                      ... off
GBWName                                         ... orca.gbw
Electron density file                           ... orca.mdcip.tmp

-------------
DIPOLE MOMENT
-------------
                                X             Y             Z
Electronic contribution:      0.00000      -0.00000      -0.00000
Nuclear contribution   :     -0.00000       0.00000      -0.00000
                        -----------------------------------------
Total Dipole Moment    :      0.00000      -0.00000      -0.00000
                        -----------------------------------------
Magnitude (a.u.)       :      0.00000
Magnitude (Debye)      :      0.00000


Timings for individual modules:

Sum of individual times         ...    16573.532 sec (= 276.226 min)
GTO integral calculation        ...      120.608 sec (=   2.010 min)   0.7 %
SCF iterations                  ...     7110.682 sec (= 118.511 min)  42.9 %
MDCI module                     ...     9342.242 sec (= 155.704 min)  56.4 %
                             ****ORCA TERMINATED NORMALLY****
TOTAL RUN TIME: 0 days 4 hours 36 minutes 16 seconds 739 msec


------------------------------------------------------
Statistics for LoadLeveler job ll1-ib0.2713636.0:

number of nodes: 1
number of MPI tasks: 8
number of OpenMP threads per task: 1

memory consumption (high water mark): 95.76 GB

average CPU usage: 98.0 %

