                                                                                     
                             WELCOME TO ABACUS                                       
                                                                                     
               'Atomic-orbital Based Ab-initio Computation at UStc'                  
                                                                                     
                     Website: http://abacus.ustc.edu.cn/                             
                                                                                     
    Version: Parallel, in development
    Processor Number is 8
    Start Time is Tue Jul  5 15:20:21 2022
                                                                                     
 ------------------------------------------------------------------------------------

 READING GENERAL INFORMATION
                           global_out_dir = OUT.ABACUS/
                           global_in_card = INPUT
                               pseudo_dir = 
                              orbital_dir = 
                              pseudo_type = auto
                                    DRANK = 1
                                    DSIZE = 8
                                   DCOLOR = 1
                                    GRANK = 1
                                    GSIZE = 1




 >>>>>>>>>>>>>>>>>>>>>>>>>>>>>>>>>>>>>>>>>>>>>>>>>>>>>>>>>>>>>>>>>>>>>>
 |                                                                    |
 | Reading atom information in unitcell:                              |
 | From the input file and the structure file we know the number of   |
 | different elments in this unitcell, then we list the detail        |
 | information for each element, especially the zeta and polar atomic |
 | orbital number for each element. The total atom number is counted. |
 | We calculate the nearest atom distance for each atom and show the  |
 | Cartesian and Direct coordinates for each atom. We list the file   |
 | address for atomic orbitals. The volume and the lattice vectors    |
 | in real and reciprocal space is also shown.                        |
 |                                                                    |
 <<<<<<<<<<<<<<<<<<<<<<<<<<<<<<<<<<<<<<<<<<<<<<<<<<<<<<<<<<<<<<<<<<<<<<




 READING UNITCELL INFORMATION
                                    ntype = 1
                 atom label for species 1 = Si
                  lattice constant (Bohr) = 10.2
              lattice constant (Angstrom) = 5.39761

 READING ATOM TYPE 1
                               atom label = Si
                      L=0, number of zeta = 1
                      L=1, number of zeta = 1
                      L=2, number of zeta = 1
             number of atom for this type = 2
                      start magnetization = FALSE
                      start magnetization = FALSE

                        TOTAL ATOM NUMBER = 2

 CARTESIAN COORDINATES ( UNIT = 10.2 Bohr ).
         atom                   x                   y                   z                 mag                  vx                  vy                  vz
     tauc_Si1                   0                   0                   0                   0                   0                   0                   0
     tauc_Si2                0.25                0.25                0.25                   0                   0                   0                   0


                          Volume (Bohr^3) = 265.302
                             Volume (A^3) = 39.3136533177

 Lattice vectors: (Cartesian coordinate: in unit of a_0)
                 +0.5                +0.5                  +0
                 +0.5                  +0                +0.5
                   +0                +0.5                +0.5
 Reciprocal vectors: (Cartesian coordinate: in unit of 2 pi/a_0)
                   +1                  +1                  -1
                   +1                  -1                  +1
                   -1                  +1                  +1




 >>>>>>>>>>>>>>>>>>>>>>>>>>>>>>>>>>>>>>>>>>>>>>>>>>>>>>>>>>>>>>>>>>>>>>
 |                                                                    |
 | Reading pseudopotentials files:                                    |
 | The pseudopotential file is in UPF format. The 'NC' indicates that |
 | the type of pseudopotential is 'norm conserving'. Functional of    |
 | exchange and correlation is decided by 4 given parameters in UPF   |
 | file.  We also read in the 'core correction' if there exists.      |
 | Also we can read the valence electrons number and the maximal      |
 | angular momentum used in this pseudopotential. We also read in the |
 | trail wave function, trail atomic density and local-pseudopotential|
 | on logrithmic grid. The non-local pseudopotential projector is also|
 | read in if there is any.                                           |
 |                                                                    |
 <<<<<<<<<<<<<<<<<<<<<<<<<<<<<<<<<<<<<<<<<<<<<<<<<<<<<<<<<<<<<<<<<<<<<<




                PAO radial cut off (Bohr) = 15

 Read in pseudopotential file is Si.pz-vbc.UPF
                     pseudopotential type = NC
          exchange-correlation functional = PZ
                 nonlocal core correction = 0
                        valence electrons = 4
                                     lmax = 1
                           number of zeta = 2
                     number of projectors = 2
                           L of projector = 0
                           L of projector = 1
     initial pseudo atomic orbital number = 8
                                   NLOCAL = 18




 >>>>>>>>>>>>>>>>>>>>>>>>>>>>>>>>>>>>>>>>>>>>>>>>>>>>>>>>>>>>>>>>>>>>>>
 |                                                                    |
 | Setup plane waves of charge/potential:                             |
 | Use the energy cutoff and the lattice vectors to generate the      |
 | dimensions of FFT grid. The number of FFT grid on each processor   |
 | is 'nrxx'. The number of plane wave basis in reciprocal space is   |
 | different for charege/potential and wave functions. We also set    |
 | the 'sticks' for the parallel of FFT. The number of plane waves    |
 | is 'npw' in each processor.                                        |
 <<<<<<<<<<<<<<<<<<<<<<<<<<<<<<<<<<<<<<<<<<<<<<<<<<<<<<<<<<<<<<<<<<<<<<





 SETUP THE PLANE WAVE BASIS
 energy cutoff for charge/potential (unit:Ry) = 200
          [fft grid for charge/potential] = 36, 36, 36
                      [fft grid division] = 1, 1, 1
      [big fft grid for charge/potential] = 36, 36, 36
                                     nbxx = 6480
                                     nrxx = 6480

 SETUP PLANE WAVES FOR CHARGE/POTENTIAL
                    number of plane waves = 12627
                         number of sticks = 721

 PARALLEL PW FOR CHARGE/POTENTIAL
     PROC   COLUMNS(POT)             PW
        1             90           1579
        2             90           1579
        3             90           1578
        4             90           1578
        5             91           1579
        6             90           1578
        7             90           1578
        8             90           1578
 --------------- sum -------------------
        8            721          12627
                            number of |g| = 176
                                  max |g| = 524
                                  min |g| = 3

 SETUP THE ELECTRONS NUMBER
            electron number of element Si = 4
      total electron number of element Si = 8
                           occupied bands = 4
                                   NBANDS = 4
 DONE : SETUP UNITCELL Time : 0.0364348888397 (SEC)





 >>>>>>>>>>>>>>>>>>>>>>>>>>>>>>>>>>>>>>>>>>>>>>>>>>>>>>>>>>>>>>>>>>>>>>
 |                                                                    |
 | Doing symmetry analysis:                                           |
 | We calculate the norm of 3 vectors and the angles between them,    |
 | the type of Bravais lattice is given. We can judge if the unticell |
 | is a primitive cell. Finally we give the point group operation for |
 | this unitcell. We we use the point group operations to do symmetry |
 | analysis on given k-point mesh and the charge density.             |
 |                                                                    |
 <<<<<<<<<<<<<<<<<<<<<<<<<<<<<<<<<<<<<<<<<<<<<<<<<<<<<<<<<<<<<<<<<<<<<<




 LATTICE VECTORS: (CARTESIAN COORDINATE: IN UNIT OF A0)
                 +0.5                +0.5                  +0
                 +0.5                  +0                +0.5
                   +0                +0.5                +0.5
                       right hand lattice = 0
                                   NORM_A = 0.707106781187
                                   NORM_B = 0.707106781187
                                   NORM_C = 0.707106781187
                           ALPHA (DEGREE) = 60
                           BETA  (DEGREE) = 60
                           GAMMA (DEGREE) = 60
                             BRAVAIS TYPE = 3
                     BRAVAIS LATTICE NAME = 03. Cubic F (face-centered)
                                    IBRAV = 3
                                  BRAVAIS = FACE CENTERED CUBIC
                       LATTICE CONSTANT A = 4.12310562562
                                    ibrav = 3
                        ROTATION MATRICES = 48
              PURE POINT GROUP OPERATIONS = 24
                   SPACE GROUP OPERATIONS = 24
                                       C2 = 3
                                       C3 = 8
                                       C4 = 0
                                       C6 = 0
                                       S1 = 6
                                       S3 = 0
                                       S4 = 6
                                       S6 = 0
                              POINT GROUP = T_d
Warning : If the optimal symmetric configuration is not the input configuration, 
you have to manually change configurations, ABACUS would only calculate the input structure!
 DONE : SYMMETRY Time : 0.0758948326111 (SEC)





 >>>>>>>>>>>>>>>>>>>>>>>>>>>>>>>>>>>>>>>>>>>>>>>>>>>>>>>>>>>>>>>>>>>>>>
 |                                                                    |
 | Setup K-points                                                     |
 | We setup the k-points according to input parameters.               |
 | The reduced k-points are set according to symmetry operations.     |
 | We treat the spin as another set of k-points.                      |
 |                                                                    |
 <<<<<<<<<<<<<<<<<<<<<<<<<<<<<<<<<<<<<<<<<<<<<<<<<<<<<<<<<<<<<<<<<<<<<<





 SETUP K-POINTS
                                    nspin = 1
                   Input type of k points = Monkhorst-Pack(Gamma)
is_mp : 1
                                   nkstot = 64
                               nkstot_ibz = 8
      IBZ             DirectX             DirectY             DirectZ              Weight    ibz2bz
        1                   0                   0                   0            0.015625         0
        2                0.75                0.75                0.75               0.125         1
        3                 0.5                 0.5                 0.5              0.0625         2
        4                   0                0.75                0.75             0.09375         5
        5                0.75                0.75                0.25               0.375         6
        6                0.75                0.75                 0.5              0.1875         7
        7                   0                 0.5                 0.5            0.046875        10
        8                0.75                 0.5                0.25             0.09375        27
                               nkstot now = 8

  KPOINTS            DIRECT_X            DIRECT_Y            DIRECT_Z              WEIGHT
        1                   0                   0                   0            0.015625
        2                0.75                0.75                0.75               0.125
        3                 0.5                 0.5                 0.5              0.0625
        4                   0                0.75                0.75             0.09375
        5                0.75                0.75                0.25               0.375
        6                0.75                0.75                 0.5              0.1875
        7                   0                 0.5                 0.5            0.046875
        8                0.75                 0.5                0.25             0.09375

           k-point number in this process = 8
       minimum distributed K point number = 8

  KPOINTS         CARTESIAN_X         CARTESIAN_Y         CARTESIAN_Z              WEIGHT
        1                   0                   0                   0             0.03125
        2                0.75                0.75                0.75                0.25
        3                 0.5                 0.5                 0.5               0.125
        4                   0                   0                 1.5              0.1875
        5                1.25                0.25                0.25                0.75
        6                   1                 0.5                 0.5               0.375
        7                   0                   0                   1             0.09375
        8                   1                 0.5                   0              0.1875

  KPOINTS            DIRECT_X            DIRECT_Y            DIRECT_Z              WEIGHT
        1                   0                   0                   0             0.03125
        2                0.75                0.75                0.75                0.25
        3                 0.5                 0.5                 0.5               0.125
        4                   0                0.75                0.75              0.1875
        5                0.75                0.75                0.25                0.75
        6                0.75                0.75                 0.5               0.375
        7                   0                 0.5                 0.5             0.09375
        8                0.75                 0.5                0.25              0.1875
 DONE : INIT K-POINTS Time : 0.100528717041 (SEC)





 >>>>>>>>>>>>>>>>>>>>>>>>>>>>>>>>>>>>>>>>>>>>>>>>>>>>>>>>>>>>>>>>>>>>>>
 |                                                                    |
 | Setup plane waves of wave functions:                               |
 | Use the energy cutoff and the lattice vectors to generate the      |
 | dimensions of FFT grid. The number of FFT grid on each processor   |
 | is 'nrxx'. The number of plane wave basis in reciprocal space is   |
 | different for charege/potential and wave functions. We also set    |
 | the 'sticks' for the parallel of FFT. The number of plane wave of  |
 | each k-point is 'npwk[ik]' in each processor                       |
 <<<<<<<<<<<<<<<<<<<<<<<<<<<<<<<<<<<<<<<<<<<<<<<<<<<<<<<<<<<<<<<<<<<<<<





 SETUP PLANE WAVES FOR WAVE FUNCTIONS
     energy cutoff for wavefunc (unit:Ry) = 50
            [fft grid for wave functions] = 36, 36, 36
                    number of plane waves = 2277
                         number of sticks = 235

 PARALLEL PW FOR WAVE FUNCTIONS
     PROC   COLUMNS(POT)             PW
        1             30            285
        2             30            285
        3             30            285
        4             29            284
        5             29            284
        6             29            284
        7             29            285
        8             29            285
 --------------- sum -------------------
        8            235           2277
 DONE : INIT PLANEWAVE Time : 0.103705644608 (SEC)

 DONE : INIT CHARGE Time : 0.104318618774 (SEC)

                                     npwx = 209

 SETUP NONLOCAL PSEUDOPOTENTIALS IN PLANE WAVE BASIS
 Si non-local projectors:
 projector 1 L=0
 projector 2 L=1
      TOTAL NUMBER OF NONLOCAL PROJECTORS = 8
 DONE : LOCAL POTENTIAL Time : 0.105194807053 (SEC)


 Init Non-Local PseudoPotential table : 
 Init Non-Local-Pseudopotential done.
 DONE : NON-LOCAL POTENTIAL Time : 0.109918832779 (SEC)

                                 init_chg = atomic
 DONE : INIT POTENTIAL Time : 0.116637 (SEC)


 Make real space PAO into reciprocal space.
       max mesh points in Pseudopotential = 375
     dq(describe PAO in reciprocal space) = 0.01
                                    max q = 854

 number of pseudo atomic orbitals for Si is 2
 the unit of pseudo atomic orbital is 1, renormalize to 1
 the unit of pseudo atomic orbital is 0.999999, renormalize to 1
 DONE : INIT BASIS Time : 0.165773 (SEC)


 -------------------------------------------
 SELF-CONSISTENT
 -------------------------------------------

 PW ALGORITHM --------------- ION=   1  ELEC=   1--------------------------------
 Notice: Threshold on eigenvalues was too large.
 hsover_error=0.08 > DRHO=0.0692791
 Origin diag_ethr = 0.01
 New    diag_ethr = 0.000865988

 Density error is 0.0685507785632
                          Error Threshold = 0.000865988269108

       Energy                       Rydberg                            eV
   E_KohnSham                 -15.835398628                -215.451651442
     E_Harris                -15.8591368322                 -215.77462628
      E_Fermi               +0.414576120597                +5.64059749485

 PW ALGORITHM --------------- ION=   1  ELEC=   2--------------------------------

 Density error is 0.00237809402901
                          Error Threshold = 0.00085688473204

       Energy                       Rydberg                            eV
   E_KohnSham                -15.8388334202                -215.498384188
     E_Harris                -15.8391835307                -215.503147685
      E_Fermi               +0.457068864896                +6.21874094098

 PW ALGORITHM --------------- ION=   1  ELEC=   3--------------------------------

 Density error is 8.20906044587e-05
                          Error Threshold = 2.97261753626e-05

       Energy                       Rydberg                            eV
   E_KohnSham                -15.8392652133                -215.504259034
     E_Harris                -15.8393069908                -215.504827447
      E_Fermi               +0.462515378899                +6.29284456565

 PW ALGORITHM --------------- ION=   1  ELEC=   4--------------------------------

 Density error is 7.37568600555e-06
                          Error Threshold = 1.02613255573e-06

       Energy                       Rydberg                            eV
   E_KohnSham                -15.8392932423                -215.504640389
     E_Harris                 -15.839296556                -215.504685473
      E_Fermi               +0.460436898681                 +6.2645653915

 PW ALGORITHM --------------- ION=   1  ELEC=   5--------------------------------

 Density error is 2.28642876878e-07
                          Error Threshold = 9.21960750694e-08

       Energy                       Rydberg                            eV
   E_KohnSham                -15.8392945251                -215.504657842
     E_Harris                -15.8392946213                -215.504659151
      E_Fermi               +0.461085474568                +6.27338971916

 PW ALGORITHM --------------- ION=   1  ELEC=   6--------------------------------

 Density error is 8.46207322367e-10
                          Error Threshold = 2.85803596098e-09

       Energy                       Rydberg                            eV
   E_KohnSham                -15.8392945788                -215.504658572
     E_Harris                -15.8392945791                -215.504658576
       E_band               +0.695142996167                +9.45790567266
   E_one_elec                +4.78504189176                +65.1038348966
    E_Hartree                +1.10190928926                +14.9922450131
         E_xc                -4.82648715129                -65.6677265814
      E_Ewald                -16.8997586085                  -229.9330119
      E_demet                            +0                            +0
      E_descf                            +0                            +0
     E_efield                            +0                            +0
        E_exx                            +0                            +0
      E_Fermi                +0.46099330769                +6.27213572445

 charge density convergence is achieved
 final etot is -215.504658572 eV

 STATE ENERGY(eV) AND OCCUPATIONS    NSPIN == 1
 1/8 kpoint (Cartesian) = 0 0 0 (198 pws)
       1       -5.79123      0.0312500
       2        6.27214      0.0312500
       3        6.27214      0.0312500
       4        6.27214      0.0312500

 2/8 kpoint (Cartesian) = 0.750000 0.750000 0.750000 (198 pws)
       1       -4.97679       0.250000
       2        2.30895       0.250000
       3        5.49823       0.250000
       4        5.49823       0.250000

 3/8 kpoint (Cartesian) = 0.500000 0.500000 0.500000 (198 pws)
       1       -3.39558       0.125000
       2      -0.802391       0.125000
       3        5.05453       0.125000
       4        5.05453       0.125000

 4/8 kpoint (Cartesian) = 0.00000 0.00000 1.50000 (191 pws)
       1       -4.69085       0.187500
       2        2.78003       0.187500
       3        4.33903       0.187500
       4        4.33903       0.187500

 5/8 kpoint (Cartesian) = 1.25000 0.250000 0.250000 (201 pws)
       1       -3.01571       0.750000
       2      -0.145361       0.750000
       3        2.65229       0.750000
       4        4.02009       0.750000

 6/8 kpoint (Cartesian) = 1.00000 0.500000 0.500000 (197 pws)
       1       -3.70604       0.375000
       2       0.776895       0.375000
       3        2.41546       0.375000
       4        4.91930       0.375000

 7/8 kpoint (Cartesian) = 0.00000 0.00000 1.00000 (190 pws)
       1       -1.57446      0.0937500
       2       -1.57446      0.0937500
       3        3.35819      0.0937500
       4        3.35819      0.0937500

 8/8 kpoint (Cartesian) = 1.00000 0.500000 0.00000 (209 pws)
       1       -1.39451       0.187500
       2       -1.39451       0.187500
       3        2.30366       0.187500
       4        2.30366       0.187500



 --------------------------------------------
 !FINAL_ETOT_IS -215.5046585720432 eV
 --------------------------------------------






  |CLASS_NAME---------|NAME---------------|TIME(Sec)-----|CALLS----|AVG------|PER%-------
                                      total        0.41141        19     0.022   1.0e+02%
                 Run_pw     plane_wave_line        0.39368         1      0.39       96.%
              Hamilt_PW               h_psi        0.15144       634   0.00024       37.%
              Hamilt_PW                vloc        0.13716       634   0.00022       33.%
                Cell_PW        opt_cells_pw        0.24407         1      0.24       59.%
                   Ions         opt_ions_pw        0.24399         1      0.24       59.%
          ESolver_KS_PW                 Run        0.24377         1      0.24       59.%
              HSolverPW               solve        0.20575         7     0.029       50.%
                DiagoCG                diag        0.10361        56    0.0019       25.%
 ----------------------------------------------------------------------------------------

 CLASS_NAME---------|NAME---------------|MEMORY(MB)--------
                                         1.733
 ----------------------------------------------------------

 Start  Time  : Tue Jul  5 15:20:21 2022
 Finish Time  : Tue Jul  5 15:20:22 2022
 Total  Time  : 0 h 0 mins 1 secs 
