date Fri Mar 4 14:26:52 CET 2016
user: casassa
master hostname: node79
master system: Linux node79 2.6.32-5-amd64 #1 SMP Thu Mar 22 17:26:33 UTC 2012 x86_64 GNU/Linux
queue job id: 127619.frontend.cluster
queue hostname: clutwin
list of used nodes: node79 node79 node79 node79 node79 node79 node79 node79 node47 node47 node47 node47 node47 node47 node47 node47
number of allocated processors: 16
number of used processors: 16
output data in /home/delapierre/simon/WORK/MIMMO_DEB_NEW/nodebug_parallel/TEST_SET_236/nano/test_nano07_3.out
script used is simon_cosmic
crystal selected version is MIMMO_DEB_NEW
mpirun executable in /opt/openmpi-1.6.5/bin/
Pcrystal executable in /home/civalleri/bin/svn928_240216_pub/bin/Linux-ifort_XE_openmpi_emt64/v1.0.4/
input data in /home/delapierre/simon/WORK/MIMMO_DEB_NEW/nodebug_parallel/TEST_SET_236/nano/test_nano07_3.d12
creating temporary directories /data/casassa/tmp_p3846_casassa on each node
copying Pcrystal executable on each node
copying input file on each node
CRYSTAL data /home/delapierre/simon/WORK/MIMMO_DEB_NEW/nodebug_parallel/TEST_SET_236/nano/test_nano07_3.f9 not found or empty
TEST07_3 - armchair C NANOTUBE - 6-21G, PBEsol
SLAB
77
2.47
1
6  -0.33333333333 0.33333333333 0.
SWCNT
6 6
END
6  3
2 0 6  2.  0.
2 1 2  4.  0.
2 1 1  0.  0.
99 0
END
DFT
EXCHANGE
PBESOL
CORRELAT
PBESOL
XLGRID
END
TOLINTEG
8 8 8 8 16
SHRINK
10 10
SCFDIR
LEVSHIFT
10 1
FMIXING
30
TOLDEE
7
MAXCYCLES
100
END

Fri Mar  4 14:27:05 CET 2016
          16 PROCESSORS WORKING

         
 *******************************************************************************
 *                                                                             *
 *                               CRYSTAL14                                     *
 *                      public : 1.0.4 - Feb 23rd, 2016                        *
 *                       HTTP://WWW.CRYSTAL.UNITO.IT                           *
 *                                                                             *
 *                              MAIN AUTHORS                                   *
 *                                                                             *
 *  R. DOVESI(1,11), V.R. SAUNDERS(2), C. ROETTI(1,11), R. ORLANDO(1,11),      *
 *  C.M. ZICOVICH-WILSON(1,3), F. PASCALE(4), B. CIVALLERI(1,11),              *
 *  K. DOLL(5), N.M. HARRISON(2,6), I. J. BUSH(7), Ph. D'ARCO(8),              *
 *  M. LLUNELL(9), M. CAUSA'(10), Y. NOEL(8)                                   *
 *                                                                             *
 *        CONTRIBUTIONS TO THE CURRENT RELEASE HAVE BEEN GIVEN BY              *
 *                                                                             *
 *  L. MASCHIO(1,11), S. CASASSA(1,11), A. ERBA(1,11), M. FERRABONE(1,11),     *
 *  M. DE LA PIERRE(1,11), M. FERRERO(1,11), V. LACIVITA(1,11),                *
 *  J. BAIMA(1,11), E. ALBANESE(1,11), M.F. PEINTINGER(12), R. BAST(13),       *
 *  M. RERAT(14), B. KIRTMAN(15), R. DEMICHELIS(1,16)                          *
 *                                                                             *
 * (1) THEORETICAL CHEMISTRY GROUP - UNIVERSITA' DI TORINO - TORINO (ITALY)    *
 *     http://www.crystal.unito.it                                             *
 * (2) COMPUTATIONAL SCIENCE & ENGINEERING DEPARTMENT - STFC DARESBURY (UK)    *
 *     http://www.stfc.ac.uk/CSE/randd/cmg/CRYSTAL/25806.aspx                  *
 * (3) UNIVERSIDAD AUTONOMA DEL ESTADO DE MORELOS - CUERNAVACA (MEXICO)        *
 * (4) UNIVERSITE' DE LORRAINE - NANCY (FRANCE)                                *
 * (5) UNIVERSITAET ULM - ULM (GERMANY); (6) IMPERIAL COLLEGE - LONDON (UK)    *
 * (7) NAG - OXFORD (UK); (8) UPMC - SORBONNE UNIVERSITES - PARIS (FRANCE)     *
 * (9) UNIVERSIDAD DE BARCELONA - BARCELONA (SPAIN)                            *
 *(10) UNIVERSITA' DI NAPOLI "FEDERICO II" - NAPOLI (ITALY)                    *
 *(11) NIS - NANOSTRUCTURED INTERFACES AND SURFACES - TORINO (ITALY)           *
 *(12) MPI FUER CHEMISCHE ENERGIEKONVERSION - MUELHEIM AN DER RUHR (GERMANY)   *
 *(13) UNIVERSITY OF STOCKHOLM - STOCKHOLM (SWEDEN)                            *
 *(14) UNIVERSITE' DE PAU ET DES PAYS DE L'ADOUR - PAU (FRANCE)                *
 *(15) UNIVERSITY OF CALIFORNIA SANTA BARBARA - SANTA BARBARA (USA)            *
 *(16) CURTIN UNIVERSITY - PERTH (AUSTRALIA)                                   *
 *                                                                             *
 ********************************************************************************
 EEEEEEEEEE STARTING  DATE 04 03 2016 TIME 14:27:06.7
 TEST07_3 - armchair C NANOTUBE - 6-21G, PBEsol                                  

 SLAB CALCULATION
 SYSTEM AND LATTICE                   :  HEXAGONAL   
 TWO-SIDED PLANE GROUP N. 77          :  P 6 M M         
 CORRESPONDING SPACE GROUP N. 183

 LATTICE PARAMETERS  (ANGSTROMS AND DEGREES) - CONVENTIONAL CELL
           A              B            GAMMA
        2.47000        2.47000      120.00000


 NUMBER OF IRREDUCIBLE ATOMS IN THE CONVENTIONAL CELL:    1

 INPUT COORDINATES

 ATOM AT. N.              COORDINATES
   1   6    -3.333333333300E-01  3.333333333300E-01  0.000000000000E+00

 *******************************************************************************

 << INFORMATION >>: FROM NOW ON, ALL COORDINATES REFER TO THE PRIMITIVE CELL

 *******************************************************************************

 LATTICE PARAMETERS  (ANGSTROMS AND DEGREES) - PRIMITIVE CELL
       A          B          C        ALPHA      BETA     GAMMA        VOLUME
    2.47000    2.47000  500.00000    90.00000  90.00000 120.00000      5.283534

 COORDINATES OF THE EQUIVALENT ATOMS 
 (X AND Y IN FRACTIONARY UNITS, Z IN ANGSTROMS)

 N. ATOM EQUIV AT. N.          X                  Y                  Z

   1   1   1    6 C    -3.33333333330E-01  3.33333333330E-01  0.00000000000E+00
   2   1   2    6 C     3.33333333330E-01 -3.33333333330E-01  0.00000000000E+00

 NUMBER OF SYMMETRY OPERATORS         :   12
 *******************************************************************************
 * GEOMETRY EDITING - INPUT COORDINATES ARE GIVEN IN ANGSTROM         
 *******************************************************************************

 GEOMETRY NOW FULLY CONSISTENT WITH THE GROUP

 *******************************************************************************
 *                                                                             *
 *                 CONSTRUCTION OF A NANOTUBE FROM A SLAB                      *
 *                                                                             *
 * Y. Noel, P. D'Arco, R. Demichelis, C.M. Zicovich-Wilson, R. Dovesi          *
 * On the use of symmetry in the ab initio quantum mechanical simulation of    *
 * nanotubes and related materials                                             *
 * J. Comput. Chem. 31, 855-862 (2010)                                         *
 *                                                                             *
 *******************************************************************************

 ********** SWCNT **********
 ROLL UP DIRECTION    6   6 SPECIFIED IN INPUT IS DEFINED FOR
 A GAMMA=60 DEG CELL REF. THESE INDICES ARE TRANSFORMED INTO   12   6 IN
 A GAMMA=120 DEG CELL REF.
 ***************************

 ********** SWCNT **********
 INPUT ROLL UP DIRECTION    6   6
 ***************************

 DISTINCTIVE NANOTUBE VECTORS EXPRESSED IN THE SLAB UNIT CELL BASIS A AND B
                                                   A   B
       ROLL UP DIRECTION, R                       12   6
       HELICAL DIRECTION, H                        1   1
       CYLINDER AXIS, L                            0   1

 LENGTHS IN ANGSTROM
       CYLINDER RADIUS                             4.085
       PERIOD ALONG THE CYLINDER AXIS, |L|         2.470
       THICKNESS OF THE SLAB                       0.000

 NUMBER OF ATOMS                                      24
 CHIRAL ANGLE                                     30.000 DEG

 NANOTUBE SYMMETRY
       NUMBER OF SYMMETRY OPERATORS                   48
       THE HELICAL OPERATOR:
         ORDER                                        12
         ANGLE                                 (   5/ 12)x2PI RAD =>150.000 DEG
         TRANSLATION                               1/  2 OF THE CYLINDER PERIOD
                                                   1.2350 ANGSTROM


 GCALCO - MAX INDICES DIRECT LATTICE VECTOR 13998     0     0
 NO.OF VECTORS CREATED 6999 STARS 3500 RMAX 16332.01480 BOHR

 GEOMETRY FOR WAVE FUNCTION - DIMENSIONALITY OF THE SYSTEM    1
 (NON PERIODIC DIRECTION: LATTICE PARAMETER FORMALLY SET TO 500)
 *******************************************************************************
 LATTICE PARAMETERS (ANGSTROMS AND DEGREES) - BOHR = 0.5291772083 ANGSTROM
 PRIMITIVE CELL
         A              B              C           ALPHA      BETA       GAMMA 
     2.47000000   500.00000000   500.00000000    90.000000  90.000000  90.000000
 *******************************************************************************
 ATOMS IN THE ASYMMETRIC UNIT    1 - ATOMS IN THE UNIT CELL:   24
     ATOM              X/A             Y(ANGSTROM)         Z(ANGSTROM)   R(ANGS)
 *******************************************************************************
   1 T   6 C     0.50000000000E+00  0.40232815127E+01 -0.70941308167E+00   4.085
   2 F   6 C     0.50000000000E+00  0.40232815127E+01  0.70941308167E+00   4.085
   3 F   6 C     0.00000000000E+00 -0.31295574557E+01  0.26260105068E+01   4.085
   4 F   6 C     0.00000000000E+00 -0.31295574557E+01 -0.26260105068E+01   4.085
   5 F   6 C     0.50000000000E+00  0.13972710058E+01 -0.38389705374E+01   4.085
   6 F   6 C     0.50000000000E+00  0.13972710058E+01  0.38389705374E+01   4.085
   7 F   6 C     0.00000000000E+00  0.70941308167E+00  0.40232815127E+01   4.085
   8 F   6 C    -0.89896601184E-16  0.70941308167E+00 -0.40232815127E+01   4.085
   9 F   6 C     0.50000000000E+00 -0.26260105068E+01 -0.31295574557E+01   4.085
  10 F   6 C     0.50000000000E+00 -0.26260105068E+01  0.31295574557E+01   4.085
  11 F   6 C     0.17979320237E-15  0.38389705374E+01  0.13972710058E+01   4.085
  12 F   6 C    -0.62927620829E-15  0.38389705374E+01 -0.13972710058E+01   4.085
  13 F   6 C     0.50000000000E+00 -0.40232815127E+01  0.70941308167E+00   4.085
  14 F   6 C     0.50000000000E+00 -0.40232815127E+01 -0.70941308167E+00   4.085
  15 F   6 C     0.00000000000E+00  0.31295574557E+01 -0.26260105068E+01   4.085
  16 F   6 C    -0.80906941066E-15  0.31295574557E+01  0.26260105068E+01   4.085
  17 F   6 C     0.50000000000E+00 -0.13972710058E+01  0.38389705374E+01   4.085
  18 F   6 C     0.50000000000E+00 -0.13972710058E+01 -0.38389705374E+01   4.085
  19 F   6 C    -0.53937960711E-15 -0.70941308167E+00 -0.40232815127E+01   4.085
  20 F   6 C    -0.62927620829E-15 -0.70941308167E+00  0.40232815127E+01   4.085
  21 F   6 C     0.50000000000E+00  0.26260105068E+01  0.31295574557E+01   4.085
  22 F   6 C     0.50000000000E+00  0.26260105068E+01 -0.31295574557E+01   4.085
  23 F   6 C    -0.35958640474E-15 -0.38389705374E+01 -0.13972710058E+01   4.085
  24 F   6 C    -0.15282422201E-14 -0.38389705374E+01  0.13972710058E+01   4.085

 T = ATOM BELONGING TO THE ASYMMETRIC UNIT

 ****   48 SYMMOPS - TRANSLATORS IN FRACTIONAL UNITS
 **** MATRICES AND TRANSLATORS IN THE CRYSTALLOGRAPHIC REFERENCE FRAME
   V INV                    ROTATION MATRICES                   TRANSLATORS
   1   1  1.00  0.00  0.00  0.00  1.00  0.00  0.00  0.00  1.00  0.00  0.00  0.00
   2   2 -1.00  0.00  0.00  0.00  1.00  0.00  0.00  0.00 -1.00  0.00  0.00  0.00
   3   3 -1.00  0.00  0.00  0.00  1.00  0.00  0.00  0.00  1.00  0.00  0.00  0.00
   4   4  1.00  0.00  0.00  0.00  1.00  0.00  0.00  0.00 -1.00  0.00  0.00  0.00
   5  45  1.00  0.00  0.00  0.00 -0.87 -0.50  0.00  0.50 -0.87 -0.50  0.00  0.00
   6   6 -1.00  0.00  0.00  0.00 -0.87 -0.50  0.00 -0.50  0.87 -0.50  0.00  0.00
   7  47 -1.00  0.00  0.00  0.00 -0.87 -0.50  0.00  0.50 -0.87 -0.50  0.00  0.00
   8   8  1.00  0.00  0.00  0.00 -0.87 -0.50  0.00 -0.50  0.87 -0.50  0.00  0.00
   9  41  1.00  0.00  0.00  0.00  0.50  0.87  0.00 -0.87  0.50 -0.00  0.00  0.00
  10  10 -1.00  0.00  0.00  0.00  0.50  0.87  0.00  0.87 -0.50 -1.00  0.00  0.00
  11  43 -1.00  0.00  0.00  0.00  0.50  0.87  0.00 -0.87  0.50 -1.00  0.00  0.00
  12  12  1.00  0.00  0.00  0.00  0.50  0.87  0.00  0.87 -0.50  0.00  0.00  0.00
  13  37  1.00  0.00  0.00  0.00  0.00 -1.00  0.00  1.00  0.00 -0.50  0.00  0.00
  14  14 -1.00  0.00  0.00  0.00  0.00 -1.00  0.00 -1.00 -0.00 -0.50  0.00  0.00
  15  39 -1.00  0.00  0.00  0.00  0.00 -1.00  0.00  1.00  0.00 -0.50  0.00  0.00
  16  16  1.00  0.00  0.00  0.00  0.00 -1.00  0.00 -1.00 -0.00 -0.50  0.00  0.00
  17  33  1.00  0.00  0.00  0.00 -0.50  0.87  0.00 -0.87 -0.50  0.00  0.00  0.00
  18  18 -1.00  0.00  0.00  0.00 -0.50  0.87  0.00  0.87  0.50 -1.00  0.00  0.00
  19  35 -1.00  0.00  0.00  0.00 -0.50  0.87  0.00 -0.87 -0.50 -1.00  0.00  0.00
  20  20  1.00  0.00  0.00  0.00 -0.50  0.87  0.00  0.87  0.50  0.00  0.00  0.00
  21  29  1.00  0.00  0.00  0.00  0.87 -0.50  0.00  0.50  0.87 -0.50  0.00  0.00
  22  22 -1.00  0.00  0.00  0.00  0.87 -0.50  0.00 -0.50 -0.87 -0.50  0.00  0.00
  23  31 -1.00  0.00  0.00  0.00  0.87 -0.50  0.00  0.50  0.87 -0.50  0.00  0.00
  24  24  1.00  0.00  0.00  0.00  0.87 -0.50  0.00 -0.50 -0.87 -0.50  0.00  0.00
  25  25  1.00  0.00  0.00  0.00 -1.00 -0.00  0.00  0.00 -1.00 -0.00  0.00  0.00
  26  26 -1.00  0.00  0.00  0.00 -1.00 -0.00  0.00 -0.00  1.00 -1.00  0.00  0.00
  27  27 -1.00  0.00  0.00  0.00 -1.00 -0.00  0.00  0.00 -1.00 -1.00  0.00  0.00
  28  28  1.00  0.00  0.00  0.00 -1.00 -0.00  0.00 -0.00  1.00  0.00  0.00  0.00
  29  21  1.00  0.00  0.00  0.00  0.87  0.50  0.00 -0.50  0.87 -0.50  0.00  0.00
  30  30 -1.00  0.00  0.00  0.00  0.87  0.50  0.00  0.50 -0.87 -0.50  0.00  0.00
  31  23 -1.00  0.00  0.00  0.00  0.87  0.50  0.00 -0.50  0.87 -0.50  0.00  0.00
  32  32  1.00  0.00  0.00  0.00  0.87  0.50  0.00  0.50 -0.87 -0.50  0.00  0.00
  33  17  1.00  0.00  0.00  0.00 -0.50 -0.87  0.00  0.87 -0.50 -0.00  0.00  0.00
  34  34 -1.00  0.00  0.00  0.00 -0.50 -0.87  0.00 -0.87  0.50 -1.00  0.00  0.00
  35  19 -1.00  0.00  0.00  0.00 -0.50 -0.87  0.00  0.87 -0.50 -1.00  0.00  0.00
  36  36  1.00  0.00  0.00  0.00 -0.50 -0.87  0.00 -0.87  0.50  0.00  0.00  0.00
  37  13  1.00  0.00  0.00  0.00  0.00  1.00  0.00 -1.00  0.00  0.50  0.00  0.00
  38  38 -1.00  0.00  0.00  0.00  0.00  1.00  0.00  1.00 -0.00 -0.50  0.00  0.00
  39  15 -1.00  0.00  0.00  0.00  0.00  1.00  0.00 -1.00  0.00 -0.50  0.00  0.00
  40  40  1.00  0.00  0.00  0.00  0.00  1.00  0.00  1.00 -0.00 -0.50  0.00  0.00
  41   9  1.00  0.00  0.00  0.00  0.50 -0.87  0.00  0.87  0.50 -0.00  0.00  0.00
  42  42 -1.00  0.00  0.00  0.00  0.50 -0.87  0.00 -0.87 -0.50 -1.00  0.00  0.00
  43  11 -1.00  0.00  0.00  0.00  0.50 -0.87  0.00  0.87  0.50 -1.00  0.00  0.00
  44  44  1.00  0.00  0.00  0.00  0.50 -0.87  0.00 -0.87 -0.50  0.00  0.00  0.00
  45   5  1.00  0.00  0.00  0.00 -0.87  0.50  0.00 -0.50 -0.87  0.50  0.00  0.00
  46  46 -1.00  0.00  0.00  0.00 -0.87  0.50  0.00  0.50  0.87 -0.50  0.00  0.00
  47   7 -1.00  0.00  0.00  0.00 -0.87  0.50  0.00 -0.50 -0.87 -0.50  0.00  0.00
  48  48  1.00  0.00  0.00  0.00 -0.87  0.50  0.00  0.50  0.87 -0.50  0.00  0.00

 DIRECT LATTICE VECTORS CARTESIAN COMPONENTS (ANGSTROM)
          X                    Y                    Z
   0.247000000000E+01   0.000000000000E+00   0.000000000000E+00
   0.000000000000E+00   0.500000000000E+03   0.000000000000E+00
   0.000000000000E+00   0.000000000000E+00   0.500000000000E+03


 CARTESIAN COORDINATES - PRIMITIVE CELL
 *******************************************************************************
 *      ATOM          X(ANGSTROM)         Y(ANGSTROM)         Z(ANGSTROM)
 *******************************************************************************
    1     6 C     1.235000000000E+00  4.023281512672E+00 -7.094130816697E-01
    2     6 C     1.235000000000E+00  4.023281512672E+00  7.094130816697E-01
    3     6 C     0.000000000000E+00 -3.129557455716E+00  2.626010506839E+00
    4     6 C     0.000000000000E+00 -3.129557455716E+00 -2.626010506839E+00
    5     6 C     1.235000000000E+00  1.397271005833E+00 -3.838970537385E+00
    6     6 C     1.235000000000E+00  1.397271005833E+00  3.838970537385E+00
    7     6 C     0.000000000000E+00  7.094130816697E-01  4.023281512672E+00
    8     6 C    -2.220446049250E-16  7.094130816697E-01 -4.023281512672E+00
    9     6 C     1.235000000000E+00 -2.626010506839E+00 -3.129557455716E+00
   10     6 C     1.235000000000E+00 -2.626010506839E+00  3.129557455716E+00
   11     6 C     4.440892098501E-16  3.838970537385E+00  1.397271005833E+00
   12     6 C    -1.554312234475E-15  3.838970537385E+00 -1.397271005833E+00
   13     6 C     1.235000000000E+00 -4.023281512672E+00  7.094130816697E-01
   14     6 C     1.235000000000E+00 -4.023281512672E+00 -7.094130816697E-01
   15     6 C     0.000000000000E+00  3.129557455716E+00 -2.626010506839E+00
   16     6 C    -1.998401444325E-15  3.129557455716E+00  2.626010506839E+00
   17     6 C     1.235000000000E+00 -1.397271005833E+00  3.838970537385E+00
   18     6 C     1.235000000000E+00 -1.397271005833E+00 -3.838970537385E+00
   19     6 C    -1.332267629550E-15 -7.094130816697E-01 -4.023281512672E+00
   20     6 C    -1.554312234475E-15 -7.094130816697E-01  4.023281512672E+00
   21     6 C     1.235000000000E+00  2.626010506839E+00  3.129557455716E+00
   22     6 C     1.235000000000E+00  2.626010506839E+00 -3.129557455716E+00
   23     6 C    -8.881784197001E-16 -3.838970537385E+00 -1.397271005833E+00
   24     6 C    -3.774758283726E-15 -3.838970537385E+00  1.397271005833E+00

 *******************************************************************************
 LOCAL ATOMIC FUNCTIONS BASIS SET
 *******************************************************************************
   ATOM   X(AU)   Y(AU)   Z(AU)  N. TYPE  EXPONENT  S COEF   P COEF   D/F/G COEF
 *******************************************************************************
   1 C    2.334   7.603  -1.341
                                  1 S  
                                         3.048E+03 1.826E-03 0.000E+00 0.000E+00
                                         4.564E+02 1.406E-02 0.000E+00 0.000E+00
                                         1.037E+02 6.876E-02 0.000E+00 0.000E+00
                                         2.923E+01 2.304E-01 0.000E+00 0.000E+00
                                         9.349E+00 4.685E-01 0.000E+00 0.000E+00
                                         3.189E+00 3.628E-01 0.000E+00 0.000E+00
                             2-   5 SP 
                                         3.665E+00-3.959E-01 2.365E-01 0.000E+00
                                         7.705E-01 1.216E+00 8.606E-01 0.000E+00
                             6-   9 SP 
                                         1.959E-01 1.000E+00 1.000E+00 0.000E+00
   2 C    2.334   7.603   1.341
   3 C    0.000  -5.914   4.962
   4 C    0.000  -5.914  -4.962
   5 C    2.334   2.640  -7.255
   6 C    2.334   2.640   7.255
   7 C    0.000   1.341   7.603
   8 C   -0.000   1.341  -7.603
   9 C    2.334  -4.962  -5.914
  10 C    2.334  -4.962   5.914
  11 C    0.000   7.255   2.640
  12 C   -0.000   7.255  -2.640
  13 C    2.334  -7.603   1.341
  14 C    2.334  -7.603  -1.341
  15 C    0.000   5.914  -4.962
  16 C   -0.000   5.914   4.962
  17 C    2.334  -2.640   7.255
  18 C    2.334  -2.640  -7.255
  19 C   -0.000  -1.341  -7.603
  20 C   -0.000  -1.341   7.603
  21 C    2.334   4.962   5.914
  22 C    2.334   4.962  -5.914
  23 C   -0.000  -7.255  -2.640
  24 C   -0.000  -7.255   2.640
 INFORMATION **** SET_MPP **** PCRYSTAL CALCULATION
 INFORMATION **** READM2 **** NEW DEFAULT: FOCK/KS MATRIX MIXING SET TO 30 %
 INFORMATION **** READM2 **** NEW DEFAULT: FULL DIRECT SCF MODE
 INFORMATION **** READM2 **** NEW DEFAULT: COULOMB BIPOLAR BUFFER SET TO 32 Mb
 INFORMATION **** READM2 **** NEW DEFAULT: EXCHANGE BIPOLAR BUFFER SET TO 32 Mb

 *******************************************************************************
 NEW DEFAULT: DFT INTEGRATION GRID INCREASED TO XLGRID
 NEW DEFAULT: LEVEL SHIFTER 6 0
 IF THE SYSTEM IS A METAL USE KEYWORD NOSHIFT
 *******************************************************************************

 INFORMATION **** TOLINTEG **** COULOMB AND EXCHANGE SERIES TOLERANCES MODIFIED
 INFORMATION **** READM2 **** FULL DIRECT SCF (MONO AND BIEL INT) SELECTED
 INFORMATION **** LEVSHIFT **** LEVEL SHIFTER ACTIVE
 INFORMATION **** TOLDEE **** SCF TOL ON TOTAL ENERGY SET TO           7
 INFORMATION **** MAXCYCLE **** MAX NUMBER OF SCF CYCLES SET TO         100
 *******************************************************************************
 N. OF ATOMS PER CELL        24  COULOMB OVERLAP TOL         (T1) 10**   -8
 NUMBER OF SHELLS            72  COULOMB PENETRATION TOL     (T2) 10**   -8
 NUMBER OF AO               216  EXCHANGE OVERLAP TOL        (T3) 10**   20
 N. OF ELECTRONS PER CELL   144  EXCHANGE PSEUDO OVP (F(G))  (T4) 10**   20
 CORE ELECTRONS PER CELL     48  EXCHANGE PSEUDO OVP (P(G))  (T5) 10**   20
 N. OF SYMMETRY OPERATORS    48  POLE ORDER IN MONO ZONE                  4
 *******************************************************************************
 TYPE OF CALCULATION :  RESTRICTED CLOSED SHELL
 KOHN-SHAM HAMILTONIAN

 (EXCHANGE)[CORRELATION] FUNCTIONAL:(PBEsol GGA)[PBEsol]

 EIGENVALUE LEVEL SHIFTING OF  1.000 HARTREE
 LOCKING - FERMI ENERGY ALTERED BY LEVEL SHIFTER

 CAPPA:IS1 10;IS2  1;IS3  1; K PTS MONK NET   6; SYMMOPS:K SPACE  48;G SPACE  48

 *******************************************************************************
 MAX NUMBER OF SCF CYCLES     100  CONVERGENCE ON DELTAP        10**-17
 WEIGHT OF F(I) IN F(I+1)      30% CONVERGENCE ON ENERGY        10**- 7
 EIGENVALUE LEVEL SHIFTING OF  1.000 HARTREE
 LOCKING - FERMI ENERGY ALTERED BY LEVEL SHIFTER
 SHRINK. FACT.(MONKH.)   10  1  1  NUMBER OF K POINTS IN THE IBZ      6
 SHRINKING FACTOR(GILAT NET)   10  NUMBER OF K POINTS(GILAT NET)      6
 *******************************************************************************
 *** K POINTS COORDINATES (OBLIQUE COORDINATES IN UNITS OF IS = 10)
   1-R(  0  0  0)   2-C(  1  0  0)   3-C(  2  0  0)   4-C(  3  0  0)
   5-C(  4  0  0)   6-R(  5  0  0)

 DIRECT LATTICE VECTORS COMPON. (A.U.)     RECIP. LATTICE VECTORS COMPON. (A.U.) 
        X            Y            Z              X            Y            Z
    4.6676236    0.0000000    0.0000000      1.3461208    0.0000000    0.0000000
    0.0000000  944.8630670    0.0000000      0.0000000    0.0066498    0.0000000
    0.0000000    0.0000000  944.8630670      0.0000000    0.0000000    0.0066498

 DISK SPACE FOR EIGENVECTORS (FTN 10)      466560 REALS

 SYMMETRY ADAPTION OF THE BLOCH FUNCTIONS ENABLED
 TTTTTTTTTTTTTTTTTTTTTTTTTTTTTT gordsh1     TELAPSE        1.05 TCPU        0.02

 MATRIX SIZE: P(G)   73056, F(G)   36924, P(G) IRR    1107, F(G) IRR    1107
 MAX G-VECTOR INDEX FOR 1- AND 2-ELECTRON INTEGRALS   7

 TTTTTTTTTTTTTTTTTTTTTTTTTTTTTT INPUT       TELAPSE        1.05 TCPU        0.02

 NEIGHBORS OF THE NON-EQUIVALENT ATOMS

 N = NUMBER OF NEIGHBORS AT DISTANCE R
    ATOM  N     R/ANG      R/AU   NEIGHBORS (ATOM LABELS AND CELL INDICES)
   1 C    1     1.4188     2.6812    2 C    0 0 0
   1 C    2     1.4256     2.6940   12 C    1 0 0   12 C    0 0 0
   1 C    4     2.4489     4.6278   11 C    0 0 0   11 C    1 0 0   15 C    1 0 0
                                    15 C    0 0 0
   1 C    2     2.4700     4.6676    1 C   -1 0 0    1 C    1 0 0
   1 C    1     2.7945     5.2809   22 C    0 0 0
   1 C    2     2.8485     5.3829    2 C    1 0 0    2 C   -1 0 0


 SYMMETRY ALLOWED INTERNAL DEGREE(S) OF FREEDOM:   2
 TTTTTTTTTTTTTTTTTTTTTTTTTTTTTT SYMM        TELAPSE        1.15 TCPU        0.12
 TTTTTTTTTTTTTTTTTTTTTTTTTTTTTT INT_SCREEN  TELAPSE        1.15 TCPU        0.13
 INFORMATION **** EXCBUF **** EXCH. BIPO BUFFER: WORDS USED =           0

 DFT PARAMETERS

     ATOM       ELECTRONS   NET CHARGE   R(ANGSTROM)
   1   6  C       6.0000      0.0000     0.77000000

 SIZE OF GRID=      16963
 TTTTTTTTTTTTTTTTTTTTTTTTTTTTTT MAKE_GRID2  TELAPSE        1.37 TCPU        0.35
 BECKE WEIGHT FUNCTION
 RADSAFE =     2.00
 TOLERANCES - DENSITY:10**- 6; POTENTIAL:10**- 9; GRID WGT:10**-14

 RADIAL INTEGRATION  - INTERVALS (POINTS,UPPER LIMIT):            1( 75,  4.0*R)

 ANGULAR INTEGRATION - INTERVALS (ACCURACY LEVEL [N. POINTS] UPPER LIMIT):
  1(  4[  86]   0.2)  2(  8[ 194]   0.5)  3( 12[ 350]   0.9)  4( 16[ 974]   3.5)
  5( 12[ 350]9999.0)
 TTTTTTTTTTTTTTTTTTTTTTTTTTTTTT INT_CALC    TELAPSE        1.38 TCPU        0.35
 EEEEEEEEEE INT_CALC TERMINATION  DATE 04 03 2016 TIME 14:27:07.0

 *******************************************************************************
 TEST07_3 - armchair C NANOTUBE - 6-21G, PBEsol                                  
 CRYSTAL - SCF - TYPE OF CALCULATION :  RESTRICTED CLOSED SHELL
 *******************************************************************************

 CAPPA:IS1 10;IS2  1;IS3  1; K PTS MONK NET   6; SYMMOPS:K SPACE  48;G SPACE  48

 TTTTTTTTTTTTTTTTTTTTTTTTTTTTTT SDIK        TELAPSE        1.39 TCPU        0.37

 AAAAAAAAAAAAAAAAAAAAAAAAAAAAAAAAAAAAAAAAAAAAAAAAAAAAAAAAAAAAAAAAAAAAAAAAAAAAAAA
         ATOMIC WAVEFUNCTION(S)


 NUCLEAR CHARGE  6.0  SYMMETRY SPECIES            S    P
 N. ELECTRONS    6.0  NUMBER OF PRIMITIVE GTOS    9    3
                      NUMBER OF CONTRACTED GTOS   3    2
                      NUMBER OF CLOSED SHELLS     2    0
                      OPEN SHELL OCCUPATION       0    2

  ZNUC SCFIT  TOTAL HF ENERGY   KINETIC ENERGY   VIRIAL THEOREM ACCURACY
   6.0   9   -3.765831823E+01  3.765320062E+01 -2.000135914E+00  1.5E-06

 AAAAAAAAAAAAAAAAAAAAAAAAAAAAAAAAAAAAAAAAAAAAAAAAAAAAAAAAAAAAAAAAAAAAAAAAAAAAAAA

 CHARGE NORMALIZATION FACTOR   1.00000000
 TOTAL ATOMIC CHARGES:
   6.0000000   6.0000000   6.0000000   6.0000000   6.0000000   6.0000000
   6.0000000   6.0000000   6.0000000   6.0000000   6.0000000   6.0000000
   6.0000000   6.0000000   6.0000000   6.0000000   6.0000000   6.0000000
   6.0000000   6.0000000   6.0000000   6.0000000   6.0000000   6.0000000
 TTTTTTTTTTTTTTTTTTTTTTTTTTTTTT MOQGAD      TELAPSE        1.40 TCPU        0.38
 TTTTTTTTTTTTTTTTTTTTTTTTTTTTTT SHELLX2     TELAPSE        1.44 TCPU        0.41
 TTTTTTTTTTTTTTTTTTTTTTTTTTTTTT MONMO3      TELAPSE        1.46 TCPU        0.43
 NUMERICALLY INTEGRATED DENSITY    143.9996645458
 TTTTTTTTTTTTTTTTTTTTTTTTTTTTTT NUMDFT      TELAPSE        1.58 TCPU        0.55
 CYC   0 ETOT(AU) -9.168863408979E+02 DETOT -9.17E+02 tst  0.00E+00 PX  1.00E+00
 TTTTTTTTTTTTTTTTTTTTTTTTTTTTTT FDIK        TELAPSE        1.58 TCPU        0.56
 INSULATING STATE - LEVEL SHIFTER    1.00 au
 TOP OF VALENCE BANDS -    BAND     72; K    4; EIG -2.3276005E-01 AU
 TOP OF VALENCE BANDS -    BAND     72; K    1; EIG -3.0164621E-01 AU
 BOTTOM OF VIRTUAL BANDS - BAND     73; K    4; EIG -2.1416598E-01 AU
 BOTTOM OF VIRTUAL BANDS - BAND     73; K    1; EIG -1.5532564E-01 AU
 TTTTTTTTTTTTTTTTTTTTTTTTTTTTTT PDIG        TELAPSE        1.61 TCPU        0.58
 CHARGE NORMALIZATION FACTOR   1.00000000
 TOTAL ATOMIC CHARGES:
   6.0000000   6.0000000   6.0000000   6.0000000   6.0000000   6.0000000
   6.0000000   6.0000000   6.0000000   6.0000000   6.0000000   6.0000000
   6.0000000   6.0000000   6.0000000   6.0000000   6.0000000   6.0000000
   6.0000000   6.0000000   6.0000000   6.0000000   6.0000000   6.0000000
 TTTTTTTTTTTTTTTTTTTTTTTTTTTTTT MOQGAD      TELAPSE        1.61 TCPU        0.59
 TTTTTTTTTTTTTTTTTTTTTTTTTTTTTT SHELLX2     TELAPSE        1.66 TCPU        0.63
 TTTTTTTTTTTTTTTTTTTTTTTTTTTTTT MONMO3      TELAPSE        1.68 TCPU        0.65
 NUMERICALLY INTEGRATED DENSITY    143.9996927347
 TTTTTTTTTTTTTTTTTTTTTTTTTTTTTT NUMDFT      TELAPSE        1.93 TCPU        0.90
 CYC   1 ETOT(AU) -9.089644593993E+02 DETOT  7.92E+00 tst  0.00E+00 PX  1.00E+00
 TTTTTTTTTTTTTTTTTTTTTTTTTTTTTT FDIK        TELAPSE        2.05 TCPU        0.90
 INSULATING STATE - LEVEL SHIFTER    1.00 au
 TOP OF VALENCE BANDS -    BAND     72; K    4; EIG -1.1608323E+00 AU
 TOP OF VALENCE BANDS -    BAND     72; K    1; EIG -1.2302382E+00 AU
 BOTTOM OF VIRTUAL BANDS - BAND     73; K    4; EIG -1.4310199E-01 AU
 BOTTOM OF VIRTUAL BANDS - BAND     73; K    1; EIG -8.5357869E-02 AU
 TTTTTTTTTTTTTTTTTTTTTTTTTTTTTT PDIG        TELAPSE        2.07 TCPU        0.93
 CHARGE NORMALIZATION FACTOR   1.00000000
 TOTAL ATOMIC CHARGES:
   6.0000000   6.0000000   6.0000000   6.0000000   6.0000000   6.0000000
   6.0000000   6.0000000   6.0000000   6.0000000   6.0000000   6.0000000
   6.0000000   6.0000000   6.0000000   6.0000000   6.0000000   6.0000000
   6.0000000   6.0000000   6.0000000   6.0000000   6.0000000   6.0000000
 TTTTTTTTTTTTTTTTTTTTTTTTTTTTTT MOQGAD      TELAPSE        2.08 TCPU        0.94
 TTTTTTTTTTTTTTTTTTTTTTTTTTTTTT SHELLX2     TELAPSE        2.12 TCPU        0.98
 TTTTTTTTTTTTTTTTTTTTTTTTTTTTTT MONMO3      TELAPSE        2.14 TCPU        1.00
 NUMERICALLY INTEGRATED DENSITY    143.9996730936
 TTTTTTTTTTTTTTTTTTTTTTTTTTTTTT NUMDFT      TELAPSE        2.39 TCPU        1.24
 CYC   2 ETOT(AU) -9.090399701514E+02 DETOT -7.55E-02 tst  1.05E-03 PX  1.86E-02
 TTTTTTTTTTTTTTTTTTTTTTTTTTTTTT FDIK        TELAPSE        2.40 TCPU        1.25
 INSULATING STATE - LEVEL SHIFTER    1.00 au
 TOP OF VALENCE BANDS -    BAND     72; K    4; EIG -1.1580744E+00 AU
 TOP OF VALENCE BANDS -    BAND     72; K    1; EIG -1.2276409E+00 AU
 BOTTOM OF VIRTUAL BANDS - BAND     73; K    4; EIG -1.3998543E-01 AU
 BOTTOM OF VIRTUAL BANDS - BAND     73; K    1; EIG -8.2511387E-02 AU
 TTTTTTTTTTTTTTTTTTTTTTTTTTTTTT PDIG        TELAPSE        2.42 TCPU        1.28
 CHARGE NORMALIZATION FACTOR   1.00000000
 TOTAL ATOMIC CHARGES:
   6.0000000   6.0000000   6.0000000   6.0000000   6.0000000   6.0000000
   6.0000000   6.0000000   6.0000000   6.0000000   6.0000000   6.0000000
   6.0000000   6.0000000   6.0000000   6.0000000   6.0000000   6.0000000
   6.0000000   6.0000000   6.0000000   6.0000000   6.0000000   6.0000000
 TTTTTTTTTTTTTTTTTTTTTTTTTTTTTT MOQGAD      TELAPSE        2.43 TCPU        1.28
 TTTTTTTTTTTTTTTTTTTTTTTTTTTTTT SHELLX2     TELAPSE        2.47 TCPU        1.32
 TTTTTTTTTTTTTTTTTTTTTTTTTTTTTT MONMO3      TELAPSE        2.49 TCPU        1.34
 NUMERICALLY INTEGRATED DENSITY    143.9996610050
 TTTTTTTTTTTTTTTTTTTTTTTTTTTTTT NUMDFT      TELAPSE        2.74 TCPU        1.59
 CYC   3 ETOT(AU) -9.090565095060E+02 DETOT -1.65E-02 tst  4.05E-04 PX  1.12E-02
 TTTTTTTTTTTTTTTTTTTTTTTTTTTTTT FDIK        TELAPSE        2.74 TCPU        1.60
 INSULATING STATE - LEVEL SHIFTER    1.00 au
 TOP OF VALENCE BANDS -    BAND     72; K    4; EIG -1.1674245E+00 AU
 TOP OF VALENCE BANDS -    BAND     72; K    1; EIG -1.2370427E+00 AU
 BOTTOM OF VIRTUAL BANDS - BAND     73; K    4; EIG -1.4910406E-01 AU
 BOTTOM OF VIRTUAL BANDS - BAND     73; K    1; EIG -9.1645949E-02 AU
 TTTTTTTTTTTTTTTTTTTTTTTTTTTTTT PDIG        TELAPSE        2.77 TCPU        1.62
 CHARGE NORMALIZATION FACTOR   1.00000000
 TOTAL ATOMIC CHARGES:
   6.0000000   6.0000000   6.0000000   6.0000000   6.0000000   6.0000000
   6.0000000   6.0000000   6.0000000   6.0000000   6.0000000   6.0000000
   6.0000000   6.0000000   6.0000000   6.0000000   6.0000000   6.0000000
   6.0000000   6.0000000   6.0000000   6.0000000   6.0000000   6.0000000
 TTTTTTTTTTTTTTTTTTTTTTTTTTTTTT MOQGAD      TELAPSE        2.77 TCPU        1.63
 TTTTTTTTTTTTTTTTTTTTTTTTTTTTTT SHELLX2     TELAPSE        2.81 TCPU        1.67
 TTTTTTTTTTTTTTTTTTTTTTTTTTTTTT MONMO3      TELAPSE        2.84 TCPU        1.69
 NUMERICALLY INTEGRATED DENSITY    143.9996563371
 TTTTTTTTTTTTTTTTTTTTTTTTTTTTTT NUMDFT      TELAPSE        3.08 TCPU        1.93
 CYC   4 ETOT(AU) -9.090582159014E+02 DETOT -1.71E-03 tst  6.48E-05 PX  4.27E-03
 TTTTTTTTTTTTTTTTTTTTTTTTTTTTTT FDIK        TELAPSE        3.09 TCPU        1.94
 INSULATING STATE - LEVEL SHIFTER    1.00 au
 TOP OF VALENCE BANDS -    BAND     72; K    4; EIG -1.1733497E+00 AU
 TOP OF VALENCE BANDS -    BAND     72; K    1; EIG -1.2429743E+00 AU
 BOTTOM OF VIRTUAL BANDS - BAND     73; K    4; EIG -1.5497385E-01 AU
 BOTTOM OF VIRTUAL BANDS - BAND     73; K    1; EIG -9.7499436E-02 AU
 TTTTTTTTTTTTTTTTTTTTTTTTTTTTTT PDIG        TELAPSE        3.11 TCPU        1.96
 CHARGE NORMALIZATION FACTOR   1.00000000
 TOTAL ATOMIC CHARGES:
   6.0000000   6.0000000   6.0000000   6.0000000   6.0000000   6.0000000
   6.0000000   6.0000000   6.0000000   6.0000000   6.0000000   6.0000000
   6.0000000   6.0000000   6.0000000   6.0000000   6.0000000   6.0000000
   6.0000000   6.0000000   6.0000000   6.0000000   6.0000000   6.0000000
 TTTTTTTTTTTTTTTTTTTTTTTTTTTTTT MOQGAD      TELAPSE        3.12 TCPU        1.97
 TTTTTTTTTTTTTTTTTTTTTTTTTTTTTT SHELLX2     TELAPSE        3.16 TCPU        2.01
 TTTTTTTTTTTTTTTTTTTTTTTTTTTTTT MONMO3      TELAPSE        3.18 TCPU        2.03
 NUMERICALLY INTEGRATED DENSITY    143.9996550768
 TTTTTTTTTTTTTTTTTTTTTTTTTTTTTT NUMDFT      TELAPSE        3.43 TCPU        2.28
 CYC   5 ETOT(AU) -9.090584302635E+02 DETOT -2.14E-04 tst  1.28E-05 PX  2.68E-03
 TTTTTTTTTTTTTTTTTTTTTTTTTTTTTT FDIK        TELAPSE        3.44 TCPU        2.29
 INSULATING STATE - LEVEL SHIFTER    1.00 au
 TOP OF VALENCE BANDS -    BAND     72; K    4; EIG -1.1755178E+00 AU
 TOP OF VALENCE BANDS -    BAND     72; K    1; EIG -1.2451339E+00 AU
 BOTTOM OF VIRTUAL BANDS - BAND     73; K    4; EIG -1.5712910E-01 AU
 BOTTOM OF VIRTUAL BANDS - BAND     73; K    1; EIG -9.9637338E-02 AU
 TTTTTTTTTTTTTTTTTTTTTTTTTTTTTT PDIG        TELAPSE        3.46 TCPU        2.30
 CHARGE NORMALIZATION FACTOR   1.00000000
 TOTAL ATOMIC CHARGES:
   6.0000000   6.0000000   6.0000000   6.0000000   6.0000000   6.0000000
   6.0000000   6.0000000   6.0000000   6.0000000   6.0000000   6.0000000
   6.0000000   6.0000000   6.0000000   6.0000000   6.0000000   6.0000000
   6.0000000   6.0000000   6.0000000   6.0000000   6.0000000   6.0000000
 TTTTTTTTTTTTTTTTTTTTTTTTTTTTTT MOQGAD      TELAPSE        3.46 TCPU        2.32
 TTTTTTTTTTTTTTTTTTTTTTTTTTTTTT SHELLX2     TELAPSE        3.51 TCPU        2.36
 TTTTTTTTTTTTTTTTTTTTTTTTTTTTTT MONMO3      TELAPSE        3.53 TCPU        2.38
 NUMERICALLY INTEGRATED DENSITY    143.9996548756
 TTTTTTTTTTTTTTTTTTTTTTTTTTTTTT NUMDFT      TELAPSE        3.77 TCPU        2.62
 CYC   6 ETOT(AU) -9.090584984685E+02 DETOT -6.82E-05 tst  5.09E-06 PX  1.47E-03
 TTTTTTTTTTTTTTTTTTTTTTTTTTTTTT FDIK        TELAPSE        3.78 TCPU        2.63
 INSULATING STATE - LEVEL SHIFTER    1.00 au
 TOP OF VALENCE BANDS -    BAND     72; K    4; EIG -1.1760011E+00 AU
 TOP OF VALENCE BANDS -    BAND     72; K    1; EIG -1.2456091E+00 AU
 BOTTOM OF VIRTUAL BANDS - BAND     73; K    4; EIG -1.5760913E-01 AU
 BOTTOM OF VIRTUAL BANDS - BAND     73; K    1; EIG -1.0010668E-01 AU
 TTTTTTTTTTTTTTTTTTTTTTTTTTTTTT PDIG        TELAPSE        3.80 TCPU        2.65
 CHARGE NORMALIZATION FACTOR   1.00000000
 TOTAL ATOMIC CHARGES:
   6.0000000   6.0000000   6.0000000   6.0000000   6.0000000   6.0000000
   6.0000000   6.0000000   6.0000000   6.0000000   6.0000000   6.0000000
   6.0000000   6.0000000   6.0000000   6.0000000   6.0000000   6.0000000
   6.0000000   6.0000000   6.0000000   6.0000000   6.0000000   6.0000000
 TTTTTTTTTTTTTTTTTTTTTTTTTTTTTT MOQGAD      TELAPSE        3.81 TCPU        2.66
 TTTTTTTTTTTTTTTTTTTTTTTTTTTTTT SHELLX2     TELAPSE        3.85 TCPU        2.70
 TTTTTTTTTTTTTTTTTTTTTTTTTTTTTT MONMO3      TELAPSE        3.87 TCPU        2.72
 NUMERICALLY INTEGRATED DENSITY    143.9996548826
 TTTTTTTTTTTTTTTTTTTTTTTTTTTTTT NUMDFT      TELAPSE        4.09 TCPU        2.93
 CYC   7 ETOT(AU) -9.090585221266E+02 DETOT -2.37E-05 tst  2.26E-06 PX  7.28E-04
 TTTTTTTTTTTTTTTTTTTTTTTTTTTTTT FDIK        TELAPSE        4.09 TCPU        2.94
 INSULATING STATE - LEVEL SHIFTER    1.00 au
 TOP OF VALENCE BANDS -    BAND     72; K    4; EIG -1.1760259E+00 AU
 TOP OF VALENCE BANDS -    BAND     72; K    1; EIG -1.2456300E+00 AU
 BOTTOM OF VIRTUAL BANDS - BAND     73; K    4; EIG -1.5763342E-01 AU
 BOTTOM OF VIRTUAL BANDS - BAND     73; K    1; EIG -1.0012677E-01 AU
 TTTTTTTTTTTTTTTTTTTTTTTTTTTTTT PDIG        TELAPSE        4.11 TCPU        2.96
 CHARGE NORMALIZATION FACTOR   1.00000000
 TOTAL ATOMIC CHARGES:
   6.0000000   6.0000000   6.0000000   6.0000000   6.0000000   6.0000000
   6.0000000   6.0000000   6.0000000   6.0000000   6.0000000   6.0000000
   6.0000000   6.0000000   6.0000000   6.0000000   6.0000000   6.0000000
   6.0000000   6.0000000   6.0000000   6.0000000   6.0000000   6.0000000
 TTTTTTTTTTTTTTTTTTTTTTTTTTTTTT MOQGAD      TELAPSE        4.12 TCPU        2.97
 TTTTTTTTTTTTTTTTTTTTTTTTTTTTTT SHELLX2     TELAPSE        4.16 TCPU        3.01
 TTTTTTTTTTTTTTTTTTTTTTTTTTTTTT MONMO3      TELAPSE        4.18 TCPU        3.03
 NUMERICALLY INTEGRATED DENSITY    143.9996548936
 TTTTTTTTTTTTTTTTTTTTTTTTTTTTTT NUMDFT      TELAPSE        4.37 TCPU        3.22
 CYC   8 ETOT(AU) -9.090585310870E+02 DETOT -8.96E-06 tst  1.63E-06 PX  3.62E-04
 TTTTTTTTTTTTTTTTTTTTTTTTTTTTTT FDIK        TELAPSE        4.38 TCPU        3.23
 INSULATING STATE - LEVEL SHIFTER    1.00 au
 TOP OF VALENCE BANDS -    BAND     72; K    4; EIG -1.1760019E+00 AU
 TOP OF VALENCE BANDS -    BAND     72; K    1; EIG -1.2456048E+00 AU
 BOTTOM OF VIRTUAL BANDS - BAND     73; K    4; EIG -1.5760945E-01 AU
 BOTTOM OF VIRTUAL BANDS - BAND     73; K    1; EIG -1.0010212E-01 AU
 TTTTTTTTTTTTTTTTTTTTTTTTTTTTTT PDIG        TELAPSE        4.40 TCPU        3.24
 CHARGE NORMALIZATION FACTOR   1.00000000
 TOTAL ATOMIC CHARGES:
   6.0000000   6.0000000   6.0000000   6.0000000   6.0000000   6.0000000
   6.0000000   6.0000000   6.0000000   6.0000000   6.0000000   6.0000000
   6.0000000   6.0000000   6.0000000   6.0000000   6.0000000   6.0000000
   6.0000000   6.0000000   6.0000000   6.0000000   6.0000000   6.0000000
 TTTTTTTTTTTTTTTTTTTTTTTTTTTTTT MOQGAD      TELAPSE        4.41 TCPU        3.26
 TTTTTTTTTTTTTTTTTTTTTTTTTTTTTT SHELLX2     TELAPSE        4.45 TCPU        3.30
 TTTTTTTTTTTTTTTTTTTTTTTTTTTTTT MONMO3      TELAPSE        4.47 TCPU        3.32
 NUMERICALLY INTEGRATED DENSITY    143.9996548898
 TTTTTTTTTTTTTTTTTTTTTTTTTTTTTT NUMDFT      TELAPSE        4.67 TCPU        3.51
 CYC   9 ETOT(AU) -9.090585351116E+02 DETOT -4.02E-06 tst  1.20E-06 PX  2.02E-04
 TTTTTTTTTTTTTTTTTTTTTTTTTTTTTT FDIK        TELAPSE        4.67 TCPU        3.52
 INSULATING STATE - LEVEL SHIFTER    1.00 au
 TOP OF VALENCE BANDS -    BAND     72; K    4; EIG -1.1759991E+00 AU
 TOP OF VALENCE BANDS -    BAND     72; K    1; EIG -1.2456019E+00 AU
 BOTTOM OF VIRTUAL BANDS - BAND     73; K    4; EIG -1.5760666E-01 AU
 BOTTOM OF VIRTUAL BANDS - BAND     73; K    1; EIG -1.0009978E-01 AU
 TTTTTTTTTTTTTTTTTTTTTTTTTTTTTT PDIG        TELAPSE        4.69 TCPU        3.54
 CHARGE NORMALIZATION FACTOR   1.00000000
 TOTAL ATOMIC CHARGES:
   6.0000000   6.0000000   6.0000000   6.0000000   6.0000000   6.0000000
   6.0000000   6.0000000   6.0000000   6.0000000   6.0000000   6.0000000
   6.0000000   6.0000000   6.0000000   6.0000000   6.0000000   6.0000000
   6.0000000   6.0000000   6.0000000   6.0000000   6.0000000   6.0000000
 TTTTTTTTTTTTTTTTTTTTTTTTTTTTTT MOQGAD      TELAPSE        4.70 TCPU        3.54
 TTTTTTTTTTTTTTTTTTTTTTTTTTTTTT SHELLX2     TELAPSE        4.74 TCPU        3.58
 TTTTTTTTTTTTTTTTTTTTTTTTTTTTTT MONMO3      TELAPSE        4.76 TCPU        3.61
 NUMERICALLY INTEGRATED DENSITY    143.9996548811
 TTTTTTTTTTTTTTTTTTTTTTTTTTTTTT NUMDFT      TELAPSE        4.95 TCPU        3.80
 CYC  10 ETOT(AU) -9.090585370711E+02 DETOT -1.96E-06 tst  8.84E-07 PX  1.23E-04
 TTTTTTTTTTTTTTTTTTTTTTTTTTTTTT FDIK        TELAPSE        4.96 TCPU        3.80
 INSULATING STATE - LEVEL SHIFTER    1.00 au
 TOP OF VALENCE BANDS -    BAND     72; K    4; EIG -1.1760075E+00 AU
 TOP OF VALENCE BANDS -    BAND     72; K    1; EIG -1.2456106E+00 AU
 BOTTOM OF VIRTUAL BANDS - BAND     73; K    4; EIG -1.5761508E-01 AU
 BOTTOM OF VIRTUAL BANDS - BAND     73; K    1; EIG -1.0010874E-01 AU
 TTTTTTTTTTTTTTTTTTTTTTTTTTTTTT PDIG        TELAPSE        4.98 TCPU        3.82
 CHARGE NORMALIZATION FACTOR   1.00000000
 TOTAL ATOMIC CHARGES:
   6.0000000   6.0000000   6.0000000   6.0000000   6.0000000   6.0000000
   6.0000000   6.0000000   6.0000000   6.0000000   6.0000000   6.0000000
   6.0000000   6.0000000   6.0000000   6.0000000   6.0000000   6.0000000
   6.0000000   6.0000000   6.0000000   6.0000000   6.0000000   6.0000000
 TTTTTTTTTTTTTTTTTTTTTTTTTTTTTT MOQGAD      TELAPSE        4.99 TCPU        3.83
 TTTTTTTTTTTTTTTTTTTTTTTTTTTTTT SHELLX2     TELAPSE        5.03 TCPU        3.87
 TTTTTTTTTTTTTTTTTTTTTTTTTTTTTT MONMO3      TELAPSE        5.05 TCPU        3.90
 NUMERICALLY INTEGRATED DENSITY    143.9996548735
 TTTTTTTTTTTTTTTTTTTTTTTTTTTTTT NUMDFT      TELAPSE        5.28 TCPU        4.12
 CYC  11 ETOT(AU) -9.090585381007E+02 DETOT -1.03E-06 tst  6.49E-07 PX  7.70E-05
 TTTTTTTTTTTTTTTTTTTTTTTTTTTTTT FDIK        TELAPSE        5.28 TCPU        4.13
 INSULATING STATE - LEVEL SHIFTER    1.00 au
 TOP OF VALENCE BANDS -    BAND     72; K    4; EIG -1.1760161E+00 AU
 TOP OF VALENCE BANDS -    BAND     72; K    1; EIG -1.2456193E+00 AU
 BOTTOM OF VIRTUAL BANDS - BAND     73; K    4; EIG -1.5762363E-01 AU
 BOTTOM OF VIRTUAL BANDS - BAND     73; K    1; EIG -1.0011762E-01 AU
 TTTTTTTTTTTTTTTTTTTTTTTTTTTTTT PDIG        TELAPSE        5.32 TCPU        4.16
 CHARGE NORMALIZATION FACTOR   1.00000000
 TOTAL ATOMIC CHARGES:
   6.0000000   6.0000000   6.0000000   6.0000000   6.0000000   6.0000000
   6.0000000   6.0000000   6.0000000   6.0000000   6.0000000   6.0000000
   6.0000000   6.0000000   6.0000000   6.0000000   6.0000000   6.0000000
   6.0000000   6.0000000   6.0000000   6.0000000   6.0000000   6.0000000
 TTTTTTTTTTTTTTTTTTTTTTTTTTTTTT MOQGAD      TELAPSE        5.33 TCPU        4.17
 TTTTTTTTTTTTTTTTTTTTTTTTTTTTTT SHELLX2     TELAPSE        5.37 TCPU        4.21
 TTTTTTTTTTTTTTTTTTTTTTTTTTTTTT MONMO3      TELAPSE        5.39 TCPU        4.23
 NUMERICALLY INTEGRATED DENSITY    143.9996548680
 TTTTTTTTTTTTTTTTTTTTTTTTTTTTTT NUMDFT      TELAPSE        5.58 TCPU        4.42
 CYC  12 ETOT(AU) -9.090585386461E+02 DETOT -5.45E-07 tst  4.76E-07 PX  4.48E-05
 TTTTTTTTTTTTTTTTTTTTTTTTTTTTTT FDIK        TELAPSE        5.59 TCPU        4.43
 INSULATING STATE - LEVEL SHIFTER    1.00 au
 TOP OF VALENCE BANDS -    BAND     72; K    4; EIG -1.1760218E+00 AU
 TOP OF VALENCE BANDS -    BAND     72; K    1; EIG -1.2456251E+00 AU
 BOTTOM OF VIRTUAL BANDS - BAND     73; K    4; EIG -1.5762929E-01 AU
 BOTTOM OF VIRTUAL BANDS - BAND     73; K    1; EIG -1.0012345E-01 AU
 TTTTTTTTTTTTTTTTTTTTTTTTTTTTTT PDIG        TELAPSE        5.61 TCPU        4.45
 CHARGE NORMALIZATION FACTOR   1.00000000
 TOTAL ATOMIC CHARGES:
   6.0000000   6.0000000   6.0000000   6.0000000   6.0000000   6.0000000
   6.0000000   6.0000000   6.0000000   6.0000000   6.0000000   6.0000000
   6.0000000   6.0000000   6.0000000   6.0000000   6.0000000   6.0000000
   6.0000000   6.0000000   6.0000000   6.0000000   6.0000000   6.0000000
 TTTTTTTTTTTTTTTTTTTTTTTTTTTTTT MOQGAD      TELAPSE        5.62 TCPU        4.46
 TTTTTTTTTTTTTTTTTTTTTTTTTTTTTT SHELLX2     TELAPSE        5.66 TCPU        4.50
 TTTTTTTTTTTTTTTTTTTTTTTTTTTTTT MONMO3      TELAPSE        5.68 TCPU        4.52
 NUMERICALLY INTEGRATED DENSITY    143.9996548643
 TTTTTTTTTTTTTTTTTTTTTTTTTTTTTT NUMDFT      TELAPSE        5.87 TCPU        4.71
 CYC  13 ETOT(AU) -9.090585389804E+02 DETOT -3.34E-07 tst  3.49E-07 PX  2.77E-05
 TTTTTTTTTTTTTTTTTTTTTTTTTTTTTT FDIK        TELAPSE        5.88 TCPU        4.72
 INSULATING STATE - LEVEL SHIFTER    1.00 au
 TOP OF VALENCE BANDS -    BAND     72; K    4; EIG -1.1760251E+00 AU
 TOP OF VALENCE BANDS -    BAND     72; K    1; EIG -1.2456285E+00 AU
 BOTTOM OF VIRTUAL BANDS - BAND     73; K    4; EIG -1.5763256E-01 AU
 BOTTOM OF VIRTUAL BANDS - BAND     73; K    1; EIG -1.0012679E-01 AU
 TTTTTTTTTTTTTTTTTTTTTTTTTTTTTT PDIG        TELAPSE        5.90 TCPU        4.74
 CHARGE NORMALIZATION FACTOR   1.00000000
 TOTAL ATOMIC CHARGES:
   6.0000000   6.0000000   6.0000000   6.0000000   6.0000000   6.0000000
   6.0000000   6.0000000   6.0000000   6.0000000   6.0000000   6.0000000
   6.0000000   6.0000000   6.0000000   6.0000000   6.0000000   6.0000000
   6.0000000   6.0000000   6.0000000   6.0000000   6.0000000   6.0000000
 TTTTTTTTTTTTTTTTTTTTTTTTTTTTTT MOQGAD      TELAPSE        5.90 TCPU        4.74
 TTTTTTTTTTTTTTTTTTTTTTTTTTTTTT SHELLX2     TELAPSE        5.94 TCPU        4.78
 TTTTTTTTTTTTTTTTTTTTTTTTTTTTTT MONMO3      TELAPSE        5.97 TCPU        4.80
 NUMERICALLY INTEGRATED DENSITY    143.9996548615
 TTTTTTTTTTTTTTTTTTTTTTTTTTTTTT NUMDFT      TELAPSE        6.16 TCPU        5.00
 CYC  14 ETOT(AU) -9.090585391887E+02 DETOT -2.08E-07 tst  2.57E-07 PX  1.75E-05
 TTTTTTTTTTTTTTTTTTTTTTTTTTTTTT FDIK        TELAPSE        6.16 TCPU        5.00
 INSULATING STATE - LEVEL SHIFTER    1.00 au
 TOP OF VALENCE BANDS -    BAND     72; K    4; EIG -1.1760272E+00 AU
 TOP OF VALENCE BANDS -    BAND     72; K    1; EIG -1.2456305E+00 AU
 BOTTOM OF VIRTUAL BANDS - BAND     73; K    4; EIG -1.5763458E-01 AU
 BOTTOM OF VIRTUAL BANDS - BAND     73; K    1; EIG -1.0012886E-01 AU
 TTTTTTTTTTTTTTTTTTTTTTTTTTTTTT PDIG        TELAPSE        6.18 TCPU        5.02
 CHARGE NORMALIZATION FACTOR   1.00000000
 TOTAL ATOMIC CHARGES:
   6.0000000   6.0000000   6.0000000   6.0000000   6.0000000   6.0000000
   6.0000000   6.0000000   6.0000000   6.0000000   6.0000000   6.0000000
   6.0000000   6.0000000   6.0000000   6.0000000   6.0000000   6.0000000
   6.0000000   6.0000000   6.0000000   6.0000000   6.0000000   6.0000000
 TTTTTTTTTTTTTTTTTTTTTTTTTTTTTT MOQGAD      TELAPSE        6.19 TCPU        5.03
 TTTTTTTTTTTTTTTTTTTTTTTTTTTTTT SHELLX2     TELAPSE        6.23 TCPU        5.07
 TTTTTTTTTTTTTTTTTTTTTTTTTTTTTT MONMO3      TELAPSE        6.25 TCPU        5.09
 NUMERICALLY INTEGRATED DENSITY    143.9996548594
 TTTTTTTTTTTTTTTTTTTTTTTTTTTTTT NUMDFT      TELAPSE        6.44 TCPU        5.28
 CYC  15 ETOT(AU) -9.090585393263E+02 DETOT -1.38E-07 tst  1.88E-07 PX  1.48E-05
 TTTTTTTTTTTTTTTTTTTTTTTTTTTTTT FDIK        TELAPSE        6.45 TCPU        5.28
 INSULATING STATE - LEVEL SHIFTER    1.00 au
 TOP OF VALENCE BANDS -    BAND     72; K    4; EIG -1.1760285E+00 AU
 TOP OF VALENCE BANDS -    BAND     72; K    1; EIG -1.2456319E+00 AU
 BOTTOM OF VIRTUAL BANDS - BAND     73; K    4; EIG -1.5763590E-01 AU
 BOTTOM OF VIRTUAL BANDS - BAND     73; K    1; EIG -1.0013020E-01 AU
 TTTTTTTTTTTTTTTTTTTTTTTTTTTTTT PDIG        TELAPSE        6.47 TCPU        5.30
 CHARGE NORMALIZATION FACTOR   1.00000000
 TOTAL ATOMIC CHARGES:
   6.0000000   6.0000000   6.0000000   6.0000000   6.0000000   6.0000000
   6.0000000   6.0000000   6.0000000   6.0000000   6.0000000   6.0000000
   6.0000000   6.0000000   6.0000000   6.0000000   6.0000000   6.0000000
   6.0000000   6.0000000   6.0000000   6.0000000   6.0000000   6.0000000
 TTTTTTTTTTTTTTTTTTTTTTTTTTTTTT MOQGAD      TELAPSE        6.48 TCPU        5.31
 TTTTTTTTTTTTTTTTTTTTTTTTTTTTTT SHELLX2     TELAPSE        6.52 TCPU        5.35
 TTTTTTTTTTTTTTTTTTTTTTTTTTTTTT MONMO3      TELAPSE        6.54 TCPU        5.38
 NUMERICALLY INTEGRATED DENSITY    143.9996548578
 TTTTTTTTTTTTTTTTTTTTTTTTTTTTTT NUMDFT      TELAPSE        6.73 TCPU        5.56
 CYC  16 ETOT(AU) -9.090585394245E+02 DETOT -9.82E-08 tst  1.44E-07 PX  1.25E-05
 TTTTTTTTTTTTTTTTTTTTTTTTTTTTTT FDIK        TELAPSE        6.74 TCPU        5.57
 INSULATING STATE - LEVEL SHIFTER    1.00 au
 TOP OF VALENCE BANDS -    BAND     72; K    4; EIG -1.1760295E+00 AU
 TOP OF VALENCE BANDS -    BAND     72; K    1; EIG -1.2456329E+00 AU
 BOTTOM OF VIRTUAL BANDS - BAND     73; K    4; EIG -1.5763683E-01 AU
 BOTTOM OF VIRTUAL BANDS - BAND     73; K    1; EIG -1.0013115E-01 AU
 TTTTTTTTTTTTTTTTTTTTTTTTTTTTTT PDIG        TELAPSE        6.75 TCPU        5.59
 CHARGE NORMALIZATION FACTOR   1.00000000
 TOTAL ATOMIC CHARGES:
   6.0000000   6.0000000   6.0000000   6.0000000   6.0000000   6.0000000
   6.0000000   6.0000000   6.0000000   6.0000000   6.0000000   6.0000000
   6.0000000   6.0000000   6.0000000   6.0000000   6.0000000   6.0000000
   6.0000000   6.0000000   6.0000000   6.0000000   6.0000000   6.0000000
 TTTTTTTTTTTTTTTTTTTTTTTTTTTTTT MOQGAD      TELAPSE        6.76 TCPU        5.60
 TTTTTTTTTTTTTTTTTTTTTTTTTTTTTT SHELLX2     TELAPSE        6.80 TCPU        5.64

 ::: DIPOLE MOMENT ALONG NON PERIODIC DIRECTIONS:
 ::: A.U.     (Y)  4.44089E-14   (Z)  2.22045E-16
 ::: DEBYE        -1.12876E-13       -5.64381E-16

 +++ ENERGIES IN A.U. +++
 ::: EXT EL-POLE                                  -1.1548423493813E+04
 ::: EXT EL-SPHEROPOLE                             0.0000000000000E+00
 ::: BIELET ZONE E-E                               2.3560152876974E+03
 ::: TOTAL E-E                                    -9.1924082061157E+03
 ::: TOTAL E-N + N-E                               1.7113774464456E+04
 ::: TOTAL N-N                                    -9.6125763846203E+03
 ::: KINETIC ENERGY                                9.0759278919138E+02
 ::: PSEUDO TOTAL   ENERGY                        -7.8361733708829E+02
 ::: VIRIAL COEFFICIENT                            1.0733057650121E+00
 TTTTTTTTTTTTTTTTTTTTTTTTTTTTTT MONMO3      TELAPSE        6.83 TCPU        5.66
 NUMERICALLY INTEGRATED DENSITY    143.9996548565
 TTTTTTTTTTTTTTTTTTTTTTTTTTTTTT NUMDFT      TELAPSE        7.01 TCPU        5.85
 CYC  17 ETOT(AU) -9.090585394927E+02 DETOT -6.82E-08 tst  1.18E-07 PX  1.25E-05

 == SCF ENDED - CONVERGENCE ON ENERGY      E(AU) -9.0905853949268E+02 CYCLES  17


 ENERGY EXPRESSION=HARTREE+FOCK EXCH*0.00000+(PBESOL     EXCH)*1.00000+PBESOL     CORR


 TOTAL ENERGY(DFT)(AU)( 17) -9.0905853949268E+02 DE-6.8E-08 tester 1.2E-07
 TTTTTTTTTTTTTTTTTTTTTTTTTTTTTT EDFT        TELAPSE        7.02 TCPU        5.85
 EIGENVECTORS IN FORTRAN UNIT 10
 TTTTTTTTTTTTTTTTTTTTTTTTTTTTTT END         TELAPSE        7.04 TCPU        5.87
 EEEEEEEEEE TERMINATION  DATE 04 03 2016 TIME 14:27:12.7
NODE    0 CPU TIME =         5.868
NODE    1 CPU TIME =         5.892
NODE    2 CPU TIME =         5.888
NODE    3 CPU TIME =         5.896
NODE    4 CPU TIME =         5.892
NODE    5 CPU TIME =         5.896
NODE    6 CPU TIME =         5.888
NODE    7 CPU TIME =         5.896
NODE    8 CPU TIME =         6.008
NODE    9 CPU TIME =         6.008
NODE   10 CPU TIME =         6.000
NODE   11 CPU TIME =         6.000
NODE   12 CPU TIME =         6.004
NODE   13 CPU TIME =         6.004
NODE   14 CPU TIME =         6.004
NODE   15 CPU TIME =         6.000
    TOTAL CPU TIME =        95.150
Fri Mar  4 14:27:12 CET 2016
Contents of temporary directory in master node node79:
total 43828
-rw-r--r-- 1 casassa users      307 Mar  4 14:27 INPUT
-rwxr-xr-x 1 casassa users 43268780 Mar  4 14:26 Pcrystal
-rw------- 1 casassa users        0 Mar  4 14:27 dffit3.dat
-rw------- 1 casassa users        0 Mar  4 14:27 fort.1.pe00
-rw------- 1 casassa users        0 Mar  4 14:27 fort.1.pe01
-rw------- 1 casassa users        0 Mar  4 14:27 fort.1.pe02
-rw------- 1 casassa users        0 Mar  4 14:27 fort.1.pe03
-rw------- 1 casassa users        0 Mar  4 14:27 fort.1.pe04
-rw------- 1 casassa users        0 Mar  4 14:27 fort.1.pe05
-rw------- 1 casassa users        0 Mar  4 14:27 fort.1.pe06
-rw------- 1 casassa users        0 Mar  4 14:27 fort.1.pe07
-rw------- 1 casassa users     6632 Mar  4 14:27 fort.10.pe00
-rw------- 1 casassa users     2744 Mar  4 14:27 fort.10.pe01
-rw------- 1 casassa users     2744 Mar  4 14:27 fort.10.pe02
-rw------- 1 casassa users     6536 Mar  4 14:27 fort.10.pe03
-rw------- 1 casassa users     9136 Mar  4 14:27 fort.10.pe04
-rw------- 1 casassa users    13024 Mar  4 14:27 fort.10.pe05
-rw------- 1 casassa users    11080 Mar  4 14:27 fort.10.pe06
-rw------- 1 casassa users    12616 Mar  4 14:27 fort.10.pe07
-rw------- 1 casassa users     8864 Mar  4 14:27 fort.11.pe00
-rw------- 1 casassa users     8864 Mar  4 14:27 fort.11.pe01
-rw------- 1 casassa users     8864 Mar  4 14:27 fort.11.pe02
-rw------- 1 casassa users     8864 Mar  4 14:27 fort.11.pe03
-rw------- 1 casassa users     8864 Mar  4 14:27 fort.11.pe04
-rw------- 1 casassa users     8864 Mar  4 14:27 fort.11.pe05
-rw------- 1 casassa users     8864 Mar  4 14:27 fort.11.pe06
-rw------- 1 casassa users     8864 Mar  4 14:27 fort.11.pe07
-rw------- 1 casassa users        0 Mar  4 14:27 fort.17.pe01
-rw------- 1 casassa users        0 Mar  4 14:27 fort.17.pe02
-rw------- 1 casassa users        0 Mar  4 14:27 fort.17.pe03
-rw------- 1 casassa users        0 Mar  4 14:27 fort.17.pe04
-rw------- 1 casassa users        0 Mar  4 14:27 fort.17.pe05
-rw------- 1 casassa users        0 Mar  4 14:27 fort.17.pe06
-rw------- 1 casassa users        0 Mar  4 14:27 fort.17.pe07
-rw------- 1 casassa users        0 Mar  4 14:27 fort.18.pe00
-rw------- 1 casassa users        0 Mar  4 14:27 fort.18.pe01
-rw------- 1 casassa users        0 Mar  4 14:27 fort.18.pe02
-rw------- 1 casassa users        0 Mar  4 14:27 fort.18.pe03
-rw------- 1 casassa users        0 Mar  4 14:27 fort.18.pe04
-rw------- 1 casassa users        0 Mar  4 14:27 fort.18.pe05
-rw------- 1 casassa users        0 Mar  4 14:27 fort.18.pe06
-rw------- 1 casassa users        0 Mar  4 14:27 fort.18.pe07
-rw------- 1 casassa users        0 Mar  4 14:27 fort.19.pe00
-rw------- 1 casassa users        0 Mar  4 14:27 fort.19.pe01
-rw------- 1 casassa users        0 Mar  4 14:27 fort.19.pe02
-rw------- 1 casassa users        0 Mar  4 14:27 fort.19.pe03
-rw------- 1 casassa users        0 Mar  4 14:27 fort.19.pe04
-rw------- 1 casassa users        0 Mar  4 14:27 fort.19.pe05
-rw------- 1 casassa users        0 Mar  4 14:27 fort.19.pe06
-rw------- 1 casassa users        0 Mar  4 14:27 fort.19.pe07
-rw------- 1 casassa users        0 Mar  4 14:27 fort.28.pe00
-rw------- 1 casassa users        0 Mar  4 14:27 fort.28.pe01
-rw------- 1 casassa users        0 Mar  4 14:27 fort.28.pe02
-rw------- 1 casassa users        0 Mar  4 14:27 fort.28.pe03
-rw------- 1 casassa users        0 Mar  4 14:27 fort.28.pe04
-rw------- 1 casassa users        0 Mar  4 14:27 fort.28.pe05
-rw------- 1 casassa users        0 Mar  4 14:27 fort.28.pe06
-rw------- 1 casassa users        0 Mar  4 14:27 fort.28.pe07
-rw------- 1 casassa users        0 Mar  4 14:27 fort.29.pe00
-rw------- 1 casassa users        0 Mar  4 14:27 fort.29.pe01
-rw------- 1 casassa users        0 Mar  4 14:27 fort.29.pe02
-rw------- 1 casassa users        0 Mar  4 14:27 fort.29.pe03
-rw------- 1 casassa users        0 Mar  4 14:27 fort.29.pe04
-rw------- 1 casassa users        0 Mar  4 14:27 fort.29.pe05
-rw------- 1 casassa users        0 Mar  4 14:27 fort.29.pe06
-rw------- 1 casassa users        0 Mar  4 14:27 fort.29.pe07
-rw------- 1 casassa users        0 Mar  4 14:27 fort.3.pe00
-rw------- 1 casassa users        0 Mar  4 14:27 fort.3.pe01
-rw------- 1 casassa users        0 Mar  4 14:27 fort.3.pe02
-rw------- 1 casassa users        0 Mar  4 14:27 fort.3.pe03
-rw------- 1 casassa users        0 Mar  4 14:27 fort.3.pe04
-rw------- 1 casassa users        0 Mar  4 14:27 fort.3.pe05
-rw------- 1 casassa users        0 Mar  4 14:27 fort.3.pe06
-rw------- 1 casassa users        0 Mar  4 14:27 fort.3.pe07
-rw------- 1 casassa users        0 Mar  4 14:27 fort.38.pe00
-rw------- 1 casassa users        0 Mar  4 14:27 fort.38.pe01
-rw------- 1 casassa users        0 Mar  4 14:27 fort.38.pe02
-rw------- 1 casassa users        0 Mar  4 14:27 fort.38.pe03
-rw------- 1 casassa users        0 Mar  4 14:27 fort.38.pe04
-rw------- 1 casassa users        0 Mar  4 14:27 fort.38.pe05
-rw------- 1 casassa users        0 Mar  4 14:27 fort.38.pe06
-rw------- 1 casassa users        0 Mar  4 14:27 fort.38.pe07
-rw------- 1 casassa users        0 Mar  4 14:27 fort.40.pe00
-rw------- 1 casassa users        0 Mar  4 14:27 fort.40.pe01
-rw------- 1 casassa users        0 Mar  4 14:27 fort.40.pe02
-rw------- 1 casassa users        0 Mar  4 14:27 fort.40.pe03
-rw------- 1 casassa users        0 Mar  4 14:27 fort.40.pe04
-rw------- 1 casassa users        0 Mar  4 14:27 fort.40.pe05
-rw------- 1 casassa users        0 Mar  4 14:27 fort.40.pe06
-rw------- 1 casassa users        0 Mar  4 14:27 fort.40.pe07
-rw------- 1 casassa users        0 Mar  4 14:27 fort.61.pe00
-rw------- 1 casassa users        0 Mar  4 14:27 fort.61.pe01
-rw------- 1 casassa users        0 Mar  4 14:27 fort.61.pe02
-rw------- 1 casassa users        0 Mar  4 14:27 fort.61.pe03
-rw------- 1 casassa users        0 Mar  4 14:27 fort.61.pe04
-rw------- 1 casassa users        0 Mar  4 14:27 fort.61.pe05
-rw------- 1 casassa users        0 Mar  4 14:27 fort.61.pe06
-rw------- 1 casassa users        0 Mar  4 14:27 fort.61.pe07
-rw------- 1 casassa users    46560 Mar  4 14:27 fort.62.pe00
-rw------- 1 casassa users    21120 Mar  4 14:27 fort.62.pe01
-rw------- 1 casassa users    21120 Mar  4 14:27 fort.62.pe02
-rw------- 1 casassa users    43104 Mar  4 14:27 fort.62.pe03
-rw------- 1 casassa users    66400 Mar  4 14:27 fort.62.pe04
-rw------- 1 casassa users    92992 Mar  4 14:27 fort.62.pe05
-rw------- 1 casassa users    75904 Mar  4 14:27 fort.62.pe06
-rw------- 1 casassa users    94144 Mar  4 14:27 fort.62.pe07
-rw------- 1 casassa users     6632 Mar  4 14:27 fort.8.pe00
-rw------- 1 casassa users     2744 Mar  4 14:27 fort.8.pe01
-rw------- 1 casassa users     2744 Mar  4 14:27 fort.8.pe02
-rw------- 1 casassa users     6536 Mar  4 14:27 fort.8.pe03
-rw------- 1 casassa users     9136 Mar  4 14:27 fort.8.pe04
-rw------- 1 casassa users    13024 Mar  4 14:27 fort.8.pe05
-rw------- 1 casassa users    11080 Mar  4 14:27 fort.8.pe06
-rw------- 1 casassa users    12616 Mar  4 14:27 fort.8.pe07
-rw------- 1 casassa users        0 Mar  4 14:27 fort.82.pe00
-rw------- 1 casassa users        0 Mar  4 14:27 fort.82.pe01
-rw------- 1 casassa users        0 Mar  4 14:27 fort.82.pe02
-rw------- 1 casassa users        0 Mar  4 14:27 fort.82.pe03
-rw------- 1 casassa users        0 Mar  4 14:27 fort.82.pe04
-rw------- 1 casassa users        0 Mar  4 14:27 fort.82.pe05
-rw------- 1 casassa users        0 Mar  4 14:27 fort.82.pe06
-rw------- 1 casassa users        0 Mar  4 14:27 fort.82.pe07
-rw------- 1 casassa users        0 Mar  4 14:27 fort.83.pe00
-rw------- 1 casassa users        0 Mar  4 14:27 fort.83.pe01
-rw------- 1 casassa users        0 Mar  4 14:27 fort.83.pe02
-rw------- 1 casassa users        0 Mar  4 14:27 fort.83.pe03
-rw------- 1 casassa users        0 Mar  4 14:27 fort.83.pe04
-rw------- 1 casassa users        0 Mar  4 14:27 fort.83.pe05
-rw------- 1 casassa users        0 Mar  4 14:27 fort.83.pe06
-rw------- 1 casassa users        0 Mar  4 14:27 fort.83.pe07
-rw------- 1 casassa users   177908 Mar  4 14:27 fort.9
-rw------- 1 casassa users    28080 Mar  4 14:27 fort.95.pe00
-rw------- 1 casassa users    28080 Mar  4 14:27 fort.95.pe01
-rw------- 1 casassa users    28080 Mar  4 14:27 fort.95.pe02
-rw------- 1 casassa users    28080 Mar  4 14:27 fort.95.pe03
-rw------- 1 casassa users    28080 Mar  4 14:27 fort.95.pe04
-rw------- 1 casassa users    28080 Mar  4 14:27 fort.95.pe05
-rw------- 1 casassa users    28080 Mar  4 14:27 fort.95.pe06
-rw------- 1 casassa users    28080 Mar  4 14:27 fort.95.pe07
-rw------- 1 casassa users   451638 Mar  4 14:27 fort.98
wave function binary file /home/delapierre/simon/WORK/MIMMO_DEB_NEW/nodebug_parallel/TEST_SET_236/nano/test_nano07_3.f9
file fort.98 saved as /home/delapierre/simon/WORK/MIMMO_DEB_NEW/nodebug_parallel/TEST_SET_236/nano/test_nano07_3.f98
removing temporary directories /data/casassa/tmp_p3846_casassa from each node
