
.Version 9.4.0 of ABINIT 
.(MPI version, prepared for a x86_64_linux_intel19.1 computer) 

.Copyright (C) 1998-2021 ABINIT group . 
 ABINIT comes with ABSOLUTELY NO WARRANTY.
 It is free software, and you are welcome to redistribute it
 under certain conditions (GNU General Public License,
 see ~abinit/COPYING or http://www.gnu.org/copyleft/gpl.txt).

 ABINIT is a project of the Universite Catholique de Louvain,
 Corning Inc. and other collaborators, see ~abinit/doc/developers/contributors.txt .
 Please read https://docs.abinit.org/theory/acknowledgments for suggested
 acknowledgments of the ABINIT effort.
 For more information, see https://www.abinit.org .

.Starting date : Wed 24 Mar 2021.
- ( at 10h48 )
  
- input  file    -> gw.abi
- output file    -> gw.abo
- root for input  files -> gwi
- root for output files -> gwo
 
 
 DATASET    1 : space group Fm -3 m (#225); Bravais cF (face-center cubic)
================================================================================
 Values of the parameters that define the memory need for DATASET  1.
     intxc =       0    ionmov =       0      iscf =       7    lmnmax =       6
     lnmax =       6     mgfft =      36  mpssoang =       3    mqgrid =    3001
     natom =       3  nloc_mem =       1    nspden =       1   nspinor =       1
    nsppol =       1      nsym =      48    n1xccc =    2501    ntypat =       2
    occopt =       1   xclevel =       2
-    mband =         512        mffmem =           1         mkmem =          16
       mpw =        1759          nfft =       46656          nkpt =          16
================================================================================
P This job should need less than                     242.391 Mbytes of memory.
  Rough estimation (10% accuracy) of disk space for files :
_ WF disk file :    219.877 Mbytes ; DEN or POT disk file :      0.358 Mbytes.
================================================================================
 
 
 DATASET    2 : space group Fm -3 m (#225); Bravais cF (face-center cubic)
================================================================================
 Values of the parameters that define the memory need for DATASET  2.
     intxc =       0    ionmov =       0      iscf =      -2    lmnmax =       6
     lnmax =       6     mgfft =      36  mpssoang =       3    mqgrid =    3001
     natom =       3  nloc_mem =       1    nspden =       1   nspinor =       1
    nsppol =       1      nsym =      48    n1xccc =    2501    ntypat =       2
    occopt =       1   xclevel =       2
-    mband =         512        mffmem =           1         mkmem =          16
       mpw =        1759          nfft =       46656          nkpt =          16
================================================================================
P This job should need less than                     236.696 Mbytes of memory.
  Rough estimation (10% accuracy) of disk space for files :
_ WF disk file :    219.877 Mbytes ; DEN or POT disk file :      0.358 Mbytes.
================================================================================
 
 
 DATASET    3 : space group Fm -3 m (#225); Bravais cF (face-center cubic)
================================================================================
 Values of the parameters that define the memory need for DATASET  3.
     intxc =       0    ionmov =       0      iscf =       7    lmnmax =       6
     lnmax =       6     mgfft =      36  mpssoang =       3    mqgrid =    3001
     natom =       3  nloc_mem =       1    nspden =       1   nspinor =       1
    nsppol =       1      nsym =      48    n1xccc =    2501    ntypat =       2
    occopt =       1   xclevel =       2
-    mband =         512        mffmem =           1         mkmem =          16
       mpw =        1759          nfft =       46656          nkpt =          16
================================================================================
P This job should need less than                     242.391 Mbytes of memory.
  Rough estimation (10% accuracy) of disk space for files :
_ WF disk file :    219.877 Mbytes ; DEN or POT disk file :      0.358 Mbytes.
================================================================================
 
 
 DATASET    4 : space group Fm -3 m (#225); Bravais cF (face-center cubic)
================================================================================
 Values of the parameters that define the memory need for DATASET  4.
     intxc =       0    ionmov =       0      iscf =       7    lmnmax =       6
     lnmax =       6     mgfft =      36  mpssoang =       3    mqgrid =    3001
     natom =       3  nloc_mem =       1    nspden =       1   nspinor =       1
    nsppol =       1      nsym =      48    n1xccc =    2501    ntypat =       2
    occopt =       1   xclevel =       2
-    mband =         512        mffmem =           1         mkmem =          16
       mpw =        1759          nfft =       46656          nkpt =          16
================================================================================
P This job should need less than                     242.391 Mbytes of memory.
  Rough estimation (10% accuracy) of disk space for files :
_ WF disk file :    219.877 Mbytes ; DEN or POT disk file :      0.358 Mbytes.
================================================================================
 
--------------------------------------------------------------------------------
------------- Echo of variables that govern the present computation ------------
--------------------------------------------------------------------------------
-
- outvars: echo of selected default values                                      
-   iomode0 =  0 , fftalg0 =512 , wfoptalg0 =  0
-
- outvars: echo of global parameters not present in the input file              
-  max_nthreads =    0
-
 -outvars: echo values of preprocessed input variables --------
            acell      6.7767069783E+00  6.7767069783E+00  6.7767069783E+00 Bohr
              amu      9.12240000E+01  1.59994000E+01
             bdgw4         12      13      12      13      12      13
           diemac      1.20000000E+01
             ecut      3.00000000E+01 Hartree
          ecuteps1     0.00000000E+00 Hartree
          ecuteps2     0.00000000E+00 Hartree
          ecuteps3     8.00000000E+00 Hartree
          ecuteps4     0.00000000E+00 Hartree
         ecutsigx1     0.00000000E+00 Hartree
         ecutsigx2     0.00000000E+00 Hartree
         ecutsigx3     0.00000000E+00 Hartree
         ecutsigx4     3.00000000E+01 Hartree
          ecutwfn1     0.00000000E+00 Hartree
          ecutwfn2     0.00000000E+00 Hartree
          ecutwfn3     3.00000000E+01 Hartree
          ecutwfn4     3.00000000E+01 Hartree
-          fftalg         512
           getden1          0
           getden2          1
           getden3          0
           getden4          0
           getscr1          0
           getscr2          0
           getscr3          0
           getscr4          3
           getwfk1          0
           getwfk2          0
           getwfk3          2
           getwfk4          2
             iscf1          7
             iscf2         -2
             iscf3          7
             iscf4          7
           istwfk        1    0    0    1    0    0    0    0    0    0
                         0    0    1    0    0    0
              ixc     -116133
           jdtset        1    2    3    4
              kpt      0.00000000E+00  0.00000000E+00  0.00000000E+00
                       1.66666667E-01  0.00000000E+00  0.00000000E+00
                       3.33333333E-01  0.00000000E+00  0.00000000E+00
                       5.00000000E-01  0.00000000E+00  0.00000000E+00
                       1.66666667E-01  1.66666667E-01  0.00000000E+00
                       3.33333333E-01  1.66666667E-01  0.00000000E+00
                       5.00000000E-01  1.66666667E-01  0.00000000E+00
                      -3.33333333E-01  1.66666667E-01  0.00000000E+00
                      -1.66666667E-01  1.66666667E-01  0.00000000E+00
                       3.33333333E-01  3.33333333E-01  0.00000000E+00
                       5.00000000E-01  3.33333333E-01  0.00000000E+00
                      -3.33333333E-01  3.33333333E-01  0.00000000E+00
                       5.00000000E-01  5.00000000E-01  0.00000000E+00
                       5.00000000E-01  3.33333333E-01  1.66666667E-01
                      -3.33333333E-01  3.33333333E-01  1.66666667E-01
                      -3.33333333E-01  5.00000000E-01  1.66666667E-01
            kptgw4     0.00000000E+00  0.00000000E+00  0.00000000E+00
                       5.00000000E-01  5.00000000E-01  0.00000000E+00
                       5.00000000E-01  0.00000000E+00  0.00000000E+00
         kptrlatt        6    0    0      0    6    0      0    0    6
          kptrlen      4.06602419E+01
P           mkmem          16
            natom           3
            nband         512
           nbdbuf1          0
           nbdbuf2         20
           nbdbuf3          0
           nbdbuf4          0
           ndtset           4
            ngfft          36      36      36
             nkpt          16
           nkptgw1          0
           nkptgw2          0
           nkptgw3          0
           nkptgw4          3
           npweps1          0
           npweps2          0
           npweps3        259
           npweps4          0
          npwsigx1          0
          npwsigx2          0
          npwsigx3          0
          npwsigx4       1759
           npwwfn1          0
           npwwfn2          0
           npwwfn3       1759
           npwwfn4       1759
            nstep         150
             nsym          48
           ntypat           2
              occ      2.000000  2.000000  2.000000  2.000000  2.000000  2.000000
                       2.000000  2.000000  2.000000  2.000000  2.000000  2.000000
                       0.000000  0.000000  0.000000  0.000000  0.000000  0.000000
                       0.000000  0.000000  0.000000  0.000000  0.000000  0.000000
                       0.000000  0.000000  0.000000  0.000000  0.000000  0.000000
                       0.000000  0.000000  0.000000  0.000000  0.000000  0.000000
                       0.000000  0.000000  0.000000  0.000000  0.000000  0.000000
                       0.000000  0.000000  0.000000  0.000000  0.000000  0.000000
                       0.000000  0.000000  0.000000  0.000000  0.000000  0.000000
                       0.000000  0.000000  0.000000  0.000000  0.000000  0.000000
                       0.000000  0.000000  0.000000  0.000000  0.000000  0.000000
                       0.000000  0.000000  0.000000  0.000000  0.000000  0.000000
                       0.000000  0.000000  0.000000  0.000000  0.000000  0.000000
                       0.000000  0.000000  0.000000  0.000000  0.000000  0.000000
                       0.000000  0.000000  0.000000  0.000000  0.000000  0.000000
                       0.000000  0.000000  0.000000  0.000000  0.000000  0.000000
                       0.000000  0.000000  0.000000  0.000000  0.000000  0.000000
                       0.000000  0.000000  0.000000  0.000000  0.000000  0.000000
                       0.000000  0.000000  0.000000  0.000000  0.000000  0.000000
                       0.000000  0.000000  0.000000  0.000000  0.000000  0.000000
                       0.000000  0.000000  0.000000  0.000000  0.000000  0.000000
                       0.000000  0.000000  0.000000  0.000000  0.000000  0.000000
                       0.000000  0.000000  0.000000  0.000000  0.000000  0.000000
                       0.000000  0.000000  0.000000  0.000000  0.000000  0.000000
                       0.000000  0.000000  0.000000  0.000000  0.000000  0.000000
                       0.000000  0.000000  0.000000  0.000000  0.000000  0.000000
                       0.000000  0.000000  0.000000  0.000000  0.000000  0.000000
                       0.000000  0.000000  0.000000  0.000000  0.000000  0.000000
                       0.000000  0.000000  0.000000  0.000000  0.000000  0.000000
                       0.000000  0.000000  0.000000  0.000000  0.000000  0.000000
                       0.000000  0.000000  0.000000  0.000000  0.000000  0.000000
                       0.000000  0.000000  0.000000  0.000000  0.000000  0.000000
                       0.000000  0.000000  0.000000  0.000000  0.000000  0.000000
                       0.000000  0.000000  0.000000  0.000000  0.000000  0.000000
                       0.000000  0.000000  0.000000  0.000000  0.000000  0.000000
                       0.000000  0.000000  0.000000  0.000000  0.000000  0.000000
                       0.000000  0.000000  0.000000  0.000000  0.000000  0.000000
                       0.000000  0.000000  0.000000  0.000000  0.000000  0.000000
                       0.000000  0.000000  0.000000  0.000000  0.000000  0.000000
                       0.000000  0.000000  0.000000  0.000000  0.000000  0.000000
                       0.000000  0.000000  0.000000  0.000000  0.000000  0.000000
                       0.000000  0.000000  0.000000  0.000000  0.000000  0.000000
                       0.000000  0.000000  0.000000  0.000000  0.000000  0.000000
                       0.000000  0.000000  0.000000  0.000000  0.000000  0.000000
                       0.000000  0.000000  0.000000  0.000000  0.000000  0.000000
                       0.000000  0.000000  0.000000  0.000000  0.000000  0.000000
                       0.000000  0.000000  0.000000  0.000000  0.000000  0.000000
                       0.000000  0.000000  0.000000  0.000000  0.000000  0.000000
                       0.000000  0.000000  0.000000  0.000000  0.000000  0.000000
                       0.000000  0.000000  0.000000  0.000000  0.000000  0.000000
                       0.000000  0.000000  0.000000  0.000000  0.000000  0.000000
                       0.000000  0.000000  0.000000  0.000000  0.000000  0.000000
                       0.000000  0.000000  0.000000  0.000000  0.000000  0.000000
                       0.000000  0.000000  0.000000  0.000000  0.000000  0.000000
                       0.000000  0.000000  0.000000  0.000000  0.000000  0.000000
                       0.000000  0.000000  0.000000  0.000000  0.000000  0.000000
                       0.000000  0.000000  0.000000  0.000000  0.000000  0.000000
                       0.000000  0.000000  0.000000  0.000000  0.000000  0.000000
                       0.000000  0.000000  0.000000  0.000000  0.000000  0.000000
                       0.000000  0.000000  0.000000  0.000000  0.000000  0.000000
                       0.000000  0.000000  0.000000  0.000000  0.000000  0.000000
                       0.000000  0.000000  0.000000  0.000000  0.000000  0.000000
                       0.000000  0.000000  0.000000  0.000000  0.000000  0.000000
                       0.000000  0.000000  0.000000  0.000000  0.000000  0.000000
                       0.000000  0.000000  0.000000  0.000000  0.000000  0.000000
                       0.000000  0.000000  0.000000  0.000000  0.000000  0.000000
                       0.000000  0.000000  0.000000  0.000000  0.000000  0.000000
                       0.000000  0.000000  0.000000  0.000000  0.000000  0.000000
                       0.000000  0.000000  0.000000  0.000000  0.000000  0.000000
                       0.000000  0.000000  0.000000  0.000000  0.000000  0.000000
                       0.000000  0.000000  0.000000  0.000000  0.000000  0.000000
                       0.000000  0.000000  0.000000  0.000000  0.000000  0.000000
                       0.000000  0.000000  0.000000  0.000000  0.000000  0.000000
                       0.000000  0.000000  0.000000  0.000000  0.000000  0.000000
                       0.000000  0.000000  0.000000  0.000000  0.000000  0.000000
                       0.000000  0.000000  0.000000  0.000000  0.000000  0.000000
                       0.000000  0.000000  0.000000  0.000000  0.000000  0.000000
                       0.000000  0.000000  0.000000  0.000000  0.000000  0.000000
                       0.000000  0.000000  0.000000  0.000000  0.000000  0.000000
                       0.000000  0.000000  0.000000  0.000000  0.000000  0.000000
                       0.000000  0.000000  0.000000  0.000000  0.000000  0.000000
                       0.000000  0.000000  0.000000  0.000000  0.000000  0.000000
                       0.000000  0.000000  0.000000  0.000000  0.000000  0.000000
                       0.000000  0.000000  0.000000  0.000000  0.000000  0.000000
                       0.000000  0.000000  0.000000  0.000000  0.000000  0.000000
                       0.000000  0.000000
        optdriver1          0
        optdriver2          0
        optdriver3          3
        optdriver4          4
            rprim      5.7735026919E-01  0.0000000000E+00  8.1649658093E-01
                      -2.8867513459E-01  5.0000000000E-01  8.1649658093E-01
                      -2.8867513459E-01 -5.0000000000E-01  8.1649658093E-01
          spgroup         225
           symrel      1  0  0   0  1  0   0  0  1      -1  0  0   0 -1  0   0  0 -1
                       0 -1  1   0 -1  0   1 -1  0       0  1 -1   0  1  0  -1  1  0
                      -1  0  0  -1  0  1  -1  1  0       1  0  0   1  0 -1   1 -1  0
                       0  1 -1   1  0 -1   0  0 -1       0 -1  1  -1  0  1   0  0  1
                      -1  0  0  -1  1  0  -1  0  1       1  0  0   1 -1  0   1  0 -1
                       0 -1  1   1 -1  0   0 -1  0       0  1 -1  -1  1  0   0  1  0
                       1  0  0   0  0  1   0  1  0      -1  0  0   0  0 -1   0 -1  0
                       0  1 -1   0  0 -1   1  0 -1       0 -1  1   0  0  1  -1  0  1
                      -1  0  1  -1  1  0  -1  0  0       1  0 -1   1 -1  0   1  0  0
                       0 -1  0   1 -1  0   0 -1  1       0  1  0  -1  1  0   0  1 -1
                       1  0 -1   0  0 -1   0  1 -1      -1  0  1   0  0  1   0 -1  1
                       0  1  0   0  0  1   1  0  0       0 -1  0   0  0 -1  -1  0  0
                       1  0 -1   0  1 -1   0  0 -1      -1  0  1   0 -1  1   0  0  1
                       0 -1  0   0 -1  1   1 -1  0       0  1  0   0  1 -1  -1  1  0
                      -1  0  1  -1  0  0  -1  1  0       1  0 -1   1  0  0   1 -1  0
                       0  1  0   1  0  0   0  0  1       0 -1  0  -1  0  0   0  0 -1
                       0  0 -1   0  1 -1   1  0 -1       0  0  1   0 -1  1  -1  0  1
                       1 -1  0   0 -1  1   0 -1  0      -1  1  0   0  1 -1   0  1  0
                       0  0  1   1  0  0   0  1  0       0  0 -1  -1  0  0   0 -1  0
                      -1  1  0  -1  0  0  -1  0  1       1 -1  0   1  0  0   1  0 -1
                       0  0  1   0  1  0   1  0  0       0  0 -1   0 -1  0  -1  0  0
                       1 -1  0   0 -1  0   0 -1  1      -1  1  0   0  1  0   0  1 -1
                       0  0 -1   1  0 -1   0  1 -1       0  0  1  -1  0  1   0 -1  1
                      -1  1  0  -1  0  1  -1  0  0       1 -1  0   1  0 -1   1  0  0
           timopt          -1
           tolvrs1     1.00000000E-10
           tolvrs2     0.00000000E+00
           tolvrs3     0.00000000E+00
           tolvrs4     0.00000000E+00
           tolwfr1     0.00000000E+00
           tolwfr2     1.00000000E-18
           tolwfr3     0.00000000E+00
           tolwfr4     0.00000000E+00
            typat      1  2  2
              wtk        0.00463    0.03704    0.03704    0.01852    0.02778    0.11111
                         0.11111    0.11111    0.05556    0.02778    0.11111    0.05556
                         0.01389    0.11111    0.11111    0.05556
           xangst      0.0000000000E+00  0.0000000000E+00  0.0000000000E+00
                       0.0000000000E+00  0.0000000000E+00  2.1960158597E+00
                       5.8750472108E-17 -5.8750472108E-17  6.5880475791E+00
            xcart      0.0000000000E+00  0.0000000000E+00  0.0000000000E+00
                       0.0000000000E+00  0.0000000000E+00  4.1498685583E+00
                       1.1102230246E-16 -1.1102230246E-16  1.2449605675E+01
             xred      0.0000000000E+00  0.0000000000E+00  0.0000000000E+00
                       2.5000000000E-01  2.5000000000E-01  2.5000000000E-01
                       7.5000000000E-01  7.5000000000E-01  7.5000000000E-01
            znucl       40.00000    8.00000
 
================================================================================
 
 chkinp: Checking input parameters for consistency, jdtset=   1.
 
 chkinp: Checking input parameters for consistency, jdtset=   2.
 
 chkinp: Checking input parameters for consistency, jdtset=   3.
 
 chkinp: Checking input parameters for consistency, jdtset=   4.
 
================================================================================
== DATASET  1 ==================================================================
-   mpi_nproc: 1, omp_nthreads: -1 (-1 if OMP is not activated)
 

--- !DatasetInfo
iteration_state: {dtset: 1, }
dimensions: {natom: 3, nkpt: 16, mband: 512, nsppol: 1, nspinor: 1, nspden: 1, mpw: 1759, }
cutoff_energies: {ecut:  30.0, pawecutdg:  -1.0, }
electrons: {nelect:   2.40000000E+01, charge:   0.00000000E+00, occopt:   1.00000000E+00, tsmear:   1.00000000E-02, }
meta: {optdriver: 0, ionmov: 0, optcell: 0, iscf: 7, paral_kgb: 0, }
...

 Real(R)+Recip(G) space primitive vectors, cartesian coordinates (Bohr,Bohr^-1):
 R(1)=  3.9125336  0.0000000  5.5331581  G(1)=  0.1703926  0.0000000  0.0602429
 R(2)= -1.9562668  3.3883535  5.5331581  G(2)= -0.0851963  0.1475643  0.0602429
 R(3)= -1.9562668 -3.3883535  5.5331581  G(3)= -0.0851963 -0.1475643  0.0602429
 Unit cell volume ucvol=  2.2006001E+02 bohr^3
 Angles (23,13,12)=  6.00000000E+01  6.00000000E+01  6.00000000E+01 degrees
 
 getcut: wavevector=  0.0000  0.0000  0.0000  ngfft=  36  36  36
         ecut(hartree)=     30.000   => boxcut(ratio)=   2.15456
 
--- Pseudopotential description ------------------------------------------------
- pspini: atom type   1  psp file is ./Zr.psp8
- pspatm: opening atomic psp file    ./Zr.psp8
- Zr    ONCVPSP-3.3.0  r_core=   1.56507   1.56507   1.51006
- 40.00000  12.00000    180112                znucl, zion, pspdat
    8 -116133    2    4       600   0.00000   pspcod,pspxc,lmax,lloc,mmax,r2well
    5.99000000000000    5.00000000000000    0.00000000000000   rchrg,fchrg,qchrg
     nproj     2     2     2
     extension_switch     1
  pspatm : epsatm=   18.88750170
         --- l  ekb(1:nproj) -->
             0   10.584966    0.890424
             1    5.814585    0.741293
             2    1.525459    0.487901
 pspatm: atomic psp has been read  and splines computed
 
- pspini: atom type   2  psp file is ./O.psp8
- pspatm: opening atomic psp file    ./O.psp8
- O     ONCVPSP-3.3.0  r_core=   1.35509   1.45563   1.26150
-  8.00000   6.00000    180112                znucl, zion, pspdat
    8 -116133    2    4       600   0.00000   pspcod,pspxc,lmax,lloc,mmax,r2well
    5.99000000000000    4.00000000000000    0.00000000000000   rchrg,fchrg,qchrg
     nproj     2     2     1
     extension_switch     1
  pspatm : epsatm=    6.22910522
         --- l  ekb(1:nproj) -->
             0    6.050032    0.820363
             1   -4.739617   -1.153841
             2   -1.335834
 pspatm: atomic psp has been read  and splines computed
 
   7.52297091E+02                                ecore*ucvol(ha*bohr**3)
--------------------------------------------------------------------------------
 
_setup2: Arith. and geom. avg. npw (full set) are    1726.736    1726.723
 
================================================================================

--- !BeginCycle
iteration_state: {dtset: 1, }
solver: {iscf: 7, nstep: 150, nline: 4, wfoptalg: 0, }
tolerances: {tolvrs: 1.00E-10, }
...
 
     iter   Etot(hartree)      deltaE(h)  residm     vres2
 ETOT  1  -83.508283681400    -8.351E+01 1.627E-01 9.590E+02
 ETOT  2  -82.942265917842     5.660E-01 2.711E-02 2.506E+03
 ETOT  3  -83.768825665625    -8.266E-01 3.751E-02 4.152E+01
 ETOT  4  -83.774044436602    -5.219E-03 1.054E-02 1.657E+01
 ETOT  5  -83.778079519194    -4.035E-03 1.023E-02 1.006E-01
 ETOT  6  -83.778099655558    -2.014E-05 5.983E-03 1.207E-04
 ETOT  7  -83.778099645018     1.054E-08 5.837E-03 1.119E-04
 ETOT  8  -83.778099668322    -2.330E-08 3.774E-03 7.909E-08
 ETOT  9  -83.778099668334    -1.272E-11 3.297E-03 9.709E-09
 ETOT 10  -83.778099668337    -2.245E-12 2.927E-03 9.678E-11
 
 At SCF step   10       vres2   =  9.68E-11 < tolvrs=  1.00E-10 =>converged.
 
 Cartesian components of stress tensor (hartree/bohr^3)
  sigma(1 1)=  3.53454914E-04  sigma(3 2)=  0.00000000E+00
  sigma(2 2)=  3.53454914E-04  sigma(3 1)=  0.00000000E+00
  sigma(3 3)=  3.53454914E-04  sigma(2 1)=  0.00000000E+00
 

--- !ResultsGS
iteration_state: {dtset: 1, }
comment   : Summary of ground state results
lattice_vectors:
- [  3.9125336,   0.0000000,   5.5331581, ]
- [ -1.9562668,   3.3883535,   5.5331581, ]
- [ -1.9562668,  -3.3883535,   5.5331581, ]
lattice_lengths: [   6.77671,    6.77671,    6.77671, ]
lattice_angles: [ 60.000,  60.000,  60.000, ] # degrees, (23, 13, 12)
lattice_volume:   2.2006001E+02
convergence: {deltae: -2.245E-12, res2:  9.678E-11, residm:  2.927E-03, diffor: null, }
etotal    :  -8.37780997E+01
entropy   :   0.00000000E+00
fermie    :   3.08318273E-01
cartesian_stress_tensor: # hartree/bohr^3
- [  3.53454914E-04,   0.00000000E+00,   0.00000000E+00, ]
- [  0.00000000E+00,   3.53454914E-04,   0.00000000E+00, ]
- [  0.00000000E+00,   0.00000000E+00,   3.53454914E-04, ]
pressure_GPa:  -1.0399E+01
xred      :
- [  0.0000E+00,   0.0000E+00,   0.0000E+00, Zr]
- [  2.5000E-01,   2.5000E-01,   2.5000E-01,  O]
- [  7.5000E-01,   7.5000E-01,   7.5000E-01,  O]
cartesian_forces: # hartree/bohr
- [  0.00000000E+00,   0.00000000E+00,   0.00000000E+00, ]
- [ -1.87927244E-25,   3.25499534E-25,   1.32884629E-25, ]
- [  1.87927244E-25,  -3.25499534E-25,  -1.32884629E-25, ]
force_length_stats: {min:   0.00000000E+00, max:   3.98653886E-25, mean:   2.65769257E-25, }
...

 Integrated electronic density in atomic spheres:
 ------------------------------------------------
 Atom  Sphere_radius  Integrated_density
    1        2.00000          8.20158081
    2        2.00000          6.29938113
    3        2.00000          6.29938113
================================================================================
 
 ----iterations are completed or convergence reached----
 
 Mean square residual over all n,k,spin=   31.679E-07; max=  29.270E-04
 reduced coordinates (array xred) for    3 atoms
       0.000000000000      0.000000000000      0.000000000000
       0.250000000000      0.250000000000      0.250000000000
       0.750000000000      0.750000000000      0.750000000000
 rms dE/dt=  1.0398E-24; max dE/dt=  2.2058E-24; dE/dt below (all hartree)
    1       0.000000000000      0.000000000000      0.000000000000
    2       0.000000000000     -0.000000000000      0.000000000000
    3       0.000000000000      0.000000000000      0.000000000000
 
 cartesian coordinates (angstrom) at end:
    1      0.00000000000000     0.00000000000000     0.00000000000000
    2     -0.00000000000000     0.00000000000000     2.19601585969007
    3      0.00000000000000     0.00000000000000     6.58804757907020
 
 cartesian forces (hartree/bohr) at end:
    1      0.00000000000000     0.00000000000000     0.00000000000000
    2     -0.00000000000000     0.00000000000000     0.00000000000000
    3      0.00000000000000    -0.00000000000000    -0.00000000000000
 frms,max,avg= 1.8792724E-25 3.2549953E-25   0.000E+00  0.000E+00  0.000E+00 h/b
 
 cartesian forces (eV/Angstrom) at end:
    1      0.00000000000000     0.00000000000000     0.00000000000000
    2     -0.00000000000000     0.00000000000000     0.00000000000000
    3      0.00000000000000    -0.00000000000000    -0.00000000000000
 frms,max,avg= 9.6636066E-24 1.6737858E-23   0.000E+00  0.000E+00  0.000E+00 e/A
 length scales=  6.776706978283  6.776706978283  6.776706978283 bohr
              =  3.586078882200  3.586078882200  3.586078882200 angstroms
 prteigrs : about to open file gwo_DS1_EIG
 Fermi (or HOMO) energy (hartree) =   0.30832   Average Vxc (hartree)=  -0.45304
 Eigenvalues (hartree) for nkpt=  16  k points:
 kpt#   1, nband=512, wtk=  0.00463, kpt=  0.0000  0.0000  0.0000 (reduced coord)
  -1.45215   -0.63853   -0.63853   -0.63853   -0.35903   -0.26133    0.11188    0.11188
   0.11188    0.28851    0.28851    0.28851    0.43050    0.43050    0.54613    0.65820
   0.65820    0.65820    0.83389    0.83389    0.83389    1.14101    1.18608    1.18608
   1.33000    1.33000    1.33000    1.38107    1.38107    1.38107    1.45247    1.45247
   1.45247    1.59974    1.82341    1.82341    1.82341    1.83699    1.83699    1.89080
   1.89080    1.89080    2.04419    2.04676    2.04676    2.20352    2.20352    2.20352
   2.20394    2.20394    2.20394    2.24250    2.24250    2.24250    2.27766    2.34683
   2.34683    2.34683    2.39200    2.80444    2.80444    2.80444    2.87836    2.87836
   2.87836    2.98500    2.98500    3.19479    3.19479    3.19479    3.19770    3.19770
   3.22097    3.22097    3.22097    3.22976    3.22976    3.22976    3.23361    3.29371
   3.29371    3.29371    3.37751    3.78744    3.78744    3.79759    3.79759    3.79759
   3.81376    3.81376    3.82650    3.82650    3.82650    3.85666    3.92444    3.92444
   3.92444    3.94682    3.94682    3.94682    4.03264    4.04739    4.04739    4.04739
   4.12154    4.12154    4.12154    4.20708    4.20708    4.20708    4.22027    4.22027
   4.23453    4.23782    4.23782    4.23782    4.41452    4.41452    4.41452    4.46118
   4.60182    4.60182    4.67086    4.67086    4.67086    4.76507    4.76507    4.76507
   4.77626    4.77626    4.77626    4.84862    4.84862    4.84862    4.88422    4.88422
   4.88422    4.93500    4.93500    4.99498    5.19147    5.19147    5.22009    5.22009
   5.22009    5.27576    5.27576    5.32091    5.37851    5.37851    5.37851    5.42516
   5.42516    5.42516    5.46750    5.56880    5.56880    5.56880    5.58048    5.58048
   5.58048    5.58708    5.58708    5.58708    5.59986    5.59986    5.59986    5.62722
   5.76324    6.02175    6.02175    6.02175    6.03725    6.03725    6.03725    6.08742
   6.08742    6.10943    6.10943    6.10943    6.39237    6.39237    6.39237    6.51323
   6.51323    6.51323    6.56076    6.59239    6.59239    6.59239    6.75720    6.75720
   6.75720    6.78461    6.79569    6.79569    6.80669    6.80669    6.80669    6.82360
   6.82360    6.89212    6.89212    6.89212    7.00893    7.00893    7.00893    7.03979
   7.03979    7.03979    7.06182    7.06182    7.18429    7.18429    7.18429    7.18522
   7.18522    7.18522    7.19083    7.23524    7.23524    7.23524    7.28071    7.29196
   7.29196    7.29196    7.29443    7.29443    7.29443    7.31510    7.31510    7.31698
   7.31698    7.38145    7.38145    7.38145    7.41229    7.42552    7.42552    7.42552
   7.45604    7.54100    7.54100    7.54100    7.54496    7.54887    7.54887    7.56132
   7.56132    7.56132    7.56462    7.56462    7.57367    7.57367    7.57367    7.60006
   7.60006    7.60006    7.82811    7.82811    7.86792    7.87880    7.87880    7.87880
   8.05941    8.05941    8.05941    8.18249    8.18249    8.18249    8.24104    8.24104
   8.24104    8.24158    8.25576    8.25576    8.25576    8.30644    8.30644    8.30644
   8.44059    8.44059    8.44059    8.46817    8.46817    8.47184    8.47184    8.47184
   8.47781    8.51696    8.67512    8.67512    8.75105    8.75105    8.75105    8.75898
   8.75898    8.75898    8.76347    8.76347    8.76347    8.76824    8.76824    8.78720
   8.78720    8.78720    8.82975    8.82975    8.82975    9.01077    9.03450    9.03450
   9.03450    9.11117    9.11117    9.16108    9.16108    9.16108    9.19798    9.20060
   9.20060    9.20060    9.20415    9.20415    9.20415    9.23703    9.23703    9.23703
   9.27096    9.27096    9.48189    9.53204    9.53204    9.53204    9.77340    9.77340
   9.77340    9.82488    9.82488    9.82488    9.84456    9.86181    9.86181    9.90290
   9.90290    9.90291    9.96257    9.96257    9.96257   10.02849   10.12192   10.12192
  10.12192   10.20435   10.20435   10.24475   10.24475   10.25728   10.43542   10.43542
  10.43542   10.47836   10.47836   10.47836   10.50813   10.50813   10.50813   10.54082
  10.54082   10.54125   10.54125   10.54125   10.54866   10.57372   10.59667   10.59668
  10.59668   10.61792   10.61792   10.61792   10.65751   10.65751   10.65751   10.66734
  10.66734   10.66734   10.69423   10.69423   10.69423   10.81355   10.84058   10.84058
  10.84058   10.85332   10.85922   10.85922   10.86974   10.86974   10.86974   10.87395
  10.87395   10.88491   10.88491   10.88491   10.88597   10.88597   10.88597   10.91359
  10.91359   10.91359   11.07067   11.07067   11.07067   11.12822   11.27967   11.27967
  11.27967   11.28493   11.28570   11.28570   11.31423   11.31423   11.31423   11.33105
  11.33105   11.33105   11.33954   11.33954   11.33954   11.37173   11.37173   11.37173
  11.41035   11.41035   11.41900   11.59361   11.59361   11.59361   11.65388   11.65388
  11.66112   11.66112   11.66112   11.69895   11.69895   11.69895   11.71375   11.71375
  11.71375   11.76720   11.76720   11.77987   11.77987   11.77987   11.79208   11.79208
  11.79208   11.81518   11.86306   11.86306   11.86306   11.89039   11.89039   11.89039
  11.90872   11.98322   12.09884   12.10035   12.10035   12.10035   12.11079   12.11079
  12.14811   12.14811   12.15519   12.15519   12.15519   12.17331   12.17331   12.17331
  12.17370   12.17370   12.17370   12.17401   12.17401   12.17401   12.33923   12.35718
  12.35718   12.35719   12.39859   12.39861   12.39868   12.40463   12.40469   12.40483
  12.41309   12.41336   12.41992   12.41996   12.42028   12.43232   12.43856   12.43986
  12.44015   12.44036   12.44290   12.47165   12.47277   12.47545   12.47670   12.48377
 prteigrs : prtvol=0 or 1, do not print more k-points.
 

--- !EnergyTerms
iteration_state     : {dtset: 1, }
comment             : Components of total free energy in Hartree
kinetic             :  3.64409961835616E+01
hartree             :  1.32639469402341E+01
xc                  : -1.82880314113216E+01
Ewald energy        : -6.78102953205498E+01
psp_core            :  3.41859976400726E+00
local_psp           : -5.09180905076368E+01
non_local_psp       :  1.14774683368596E-01
total_energy        : -8.37780996683367E+01
total_energy_eV     : -2.27971802913645E+03
band_energy         : -5.52534324150411E+00
...

 
 Cartesian components of stress tensor (hartree/bohr^3)
  sigma(1 1)=  3.53454914E-04  sigma(3 2)=  0.00000000E+00
  sigma(2 2)=  3.53454914E-04  sigma(3 1)=  0.00000000E+00
  sigma(3 3)=  3.53454914E-04  sigma(2 1)=  0.00000000E+00
 
-Cartesian components of stress tensor (GPa)         [Pressure= -1.0399E+01 GPa]
- sigma(1 1)=  1.03990009E+01  sigma(3 2)=  0.00000000E+00
- sigma(2 2)=  1.03990009E+01  sigma(3 1)=  0.00000000E+00
- sigma(3 3)=  1.03990009E+01  sigma(2 1)=  0.00000000E+00
 
================================================================================
== DATASET  2 ==================================================================
-   mpi_nproc: 1, omp_nthreads: -1 (-1 if OMP is not activated)
 

--- !DatasetInfo
iteration_state: {dtset: 2, }
dimensions: {natom: 3, nkpt: 16, mband: 512, nsppol: 1, nspinor: 1, nspden: 1, mpw: 1759, }
cutoff_energies: {ecut:  30.0, pawecutdg:  -1.0, }
electrons: {nelect:   2.40000000E+01, charge:   0.00000000E+00, occopt:   1.00000000E+00, tsmear:   1.00000000E-02, }
meta: {optdriver: 0, ionmov: 0, optcell: 0, iscf: -2, paral_kgb: 0, }
...

 mkfilename : getden/=0, take file _DEN from output of DATASET   1.
 
 Real(R)+Recip(G) space primitive vectors, cartesian coordinates (Bohr,Bohr^-1):
 R(1)=  3.9125336  0.0000000  5.5331581  G(1)=  0.1703926  0.0000000  0.0602429
 R(2)= -1.9562668  3.3883535  5.5331581  G(2)= -0.0851963  0.1475643  0.0602429
 R(3)= -1.9562668 -3.3883535  5.5331581  G(3)= -0.0851963 -0.1475643  0.0602429
 Unit cell volume ucvol=  2.2006001E+02 bohr^3
 Angles (23,13,12)=  6.00000000E+01  6.00000000E+01  6.00000000E+01 degrees
 
 getcut: wavevector=  0.0000  0.0000  0.0000  ngfft=  36  36  36
         ecut(hartree)=     30.000   => boxcut(ratio)=   2.15456
--------------------------------------------------------------------------------
 
 
================================================================================
 prteigrs : about to open file gwo_DS2_EIG
 Non-SCF case, kpt    1 (  0.00000  0.00000  0.00000), residuals and eigenvalues=
  1.92E-20  1.05E-20  6.80E-21  1.51E-20  2.61E-19  4.41E-19  1.06E-19  1.65E-19
  2.58E-19  3.28E-19  6.77E-19  7.85E-19  3.82E-20  2.67E-20  5.66E-19  1.26E-20
  7.29E-19  1.44E-20  5.72E-19  1.47E-20  1.16E-20  2.82E-20  6.98E-20  4.78E-20
  2.35E-19  2.17E-19  3.25E-19  1.95E-19  2.74E-19  2.85E-19  1.15E-20  2.25E-20
  1.35E-20  3.51E-20  9.69E-20  6.33E-20  6.51E-20  2.88E-20  3.27E-20  4.85E-20
  4.10E-20  6.75E-20  3.58E-20  6.62E-19  8.80E-21  8.26E-19  3.63E-19  2.57E-19
  9.12E-19  1.99E-20  2.53E-20  3.78E-20  8.08E-20  9.68E-20  3.50E-20  1.81E-20
  1.51E-20  1.79E-20  1.00E-20  2.32E-19  3.90E-19  4.75E-19  2.29E-19  2.37E-19
  4.26E-19  2.45E-19  1.51E-19  1.57E-19  2.37E-19  1.12E-19  1.09E-19  1.31E-19
  1.20E-19  5.40E-19  3.98E-19  7.63E-20  2.28E-19  1.21E-19  5.15E-20  4.74E-19
  4.65E-19  6.63E-19  2.85E-19  6.08E-20  7.18E-20  1.66E-19  9.03E-20  8.12E-20
  3.77E-20  2.63E-20  6.48E-20  3.62E-20  3.04E-20  1.16E-19  1.65E-19  1.71E-19
  1.25E-19  5.58E-19  5.71E-19  4.06E-19  9.68E-20  4.05E-20  2.25E-20  3.25E-20
  4.09E-20  2.52E-20  4.76E-20  5.00E-19  3.88E-19  3.12E-19  6.46E-20  8.13E-20
  2.16E-20  4.02E-20  1.70E-20  1.21E-20  1.27E-19  1.20E-19  2.94E-19  3.38E-19
  5.46E-19  4.23E-19  4.01E-19  4.44E-19  5.65E-19  4.04E-19  3.34E-19  4.94E-19
  1.18E-19  3.10E-19  2.67E-19  2.03E-19  8.88E-20  1.23E-19  2.27E-19  1.61E-19
  1.90E-19  4.97E-20  6.27E-20  3.01E-19  2.48E-19  6.39E-20  5.45E-19  4.33E-19
  3.03E-19  2.13E-19  3.79E-19  4.27E-19  1.47E-19  4.18E-19  2.98E-19  3.41E-19
  3.67E-19  1.81E-19  4.00E-19  6.40E-19  5.29E-19  3.46E-19  1.68E-19  4.07E-19
  2.30E-19  1.58E-19  1.24E-19  2.16E-19  1.15E-19  3.57E-19  2.15E-19  1.16E-19
  6.88E-19  4.66E-20  4.02E-20  6.40E-19  4.19E-20  2.80E-20  5.98E-20  2.94E-20
  6.14E-20  6.89E-20  4.11E-20  3.82E-20  4.00E-20  3.58E-20  3.76E-20  1.01E-19
  9.99E-20  2.52E-20  9.83E-20  4.81E-20  1.84E-20  1.14E-19  4.23E-20  4.61E-20
  4.12E-20  9.35E-19  1.15E-19  6.58E-19  5.76E-20  3.19E-20  8.38E-20  5.51E-19
  5.49E-19  4.51E-20  5.01E-20  2.43E-20  3.69E-19  4.08E-19  5.55E-19  4.96E-20
  1.77E-20  1.81E-19  4.03E-20  2.44E-19  2.65E-20  7.90E-19  4.22E-19  6.42E-20
  2.79E-20  4.39E-20  2.83E-20  5.22E-19  2.08E-19  4.73E-19  3.61E-19  8.48E-20
  4.51E-20  3.11E-20  5.49E-20  2.04E-20  9.04E-20  1.93E-19  6.52E-19  1.01E-19
  1.03E-19  6.56E-19  9.69E-19  4.86E-19  8.17E-19  4.73E-20  5.34E-20  8.41E-19
  2.64E-19  3.53E-19  2.23E-19  3.16E-20  1.98E-20  5.46E-20  1.57E-20  3.40E-20
  3.09E-20  6.41E-20  7.74E-20  6.66E-20  2.84E-20  5.46E-19  3.00E-20  2.14E-19
  4.98E-19  6.43E-19  8.16E-20  4.56E-19  4.24E-19  1.26E-19  2.38E-19  1.01E-19
  1.73E-20  2.51E-20  5.98E-19  9.25E-19  2.00E-20  4.90E-20  5.75E-19  1.55E-20
  2.23E-20  2.81E-20  7.84E-19  9.08E-19  9.84E-19  2.25E-20  3.03E-20  2.94E-20
  8.95E-20  6.55E-20  1.08E-19  1.06E-19  9.27E-19  3.35E-20  4.00E-20  6.60E-20
  4.83E-20  6.66E-19  9.37E-19  6.28E-19  4.71E-20  5.79E-20  7.83E-20  2.24E-20
  2.98E-20  2.94E-20  1.09E-19  3.39E-20  9.54E-20  3.18E-20  3.22E-20  5.16E-20
  1.19E-19  3.74E-20  8.78E-20  7.10E-20  6.25E-20  6.47E-20  2.90E-19  2.74E-19
  4.80E-19  4.23E-19  9.05E-19  5.14E-19  9.50E-19  7.35E-19  9.07E-19  5.99E-19
  5.36E-20  5.38E-20  3.61E-19  1.20E-19  7.83E-19  7.76E-19  8.40E-19  4.49E-20
  9.07E-19  4.57E-19  1.37E-19  8.08E-19  2.08E-19  1.69E-19  4.34E-19  6.53E-19
  5.60E-20  1.21E-19  1.71E-19  3.14E-19  8.57E-20  3.16E-19  7.86E-19  2.06E-19
  2.13E-19  2.49E-19  6.24E-19  5.70E-19  1.63E-19  5.80E-19  1.11E-19  2.39E-19
  7.85E-19  1.03E-19  1.16E-19  3.55E-19  9.46E-19  1.11E-19  4.01E-19  8.55E-19
  2.61E-19  2.73E-19  7.48E-19  4.62E-19  8.43E-19  6.46E-19  3.21E-19  2.96E-19
  4.71E-19  4.40E-19  5.72E-19  2.33E-19  7.08E-19  8.35E-19  1.24E-19  1.20E-19
  3.00E-19  7.30E-19  8.06E-19  5.47E-19  2.51E-19  1.54E-19  4.03E-19  1.64E-19
  2.38E-19  1.22E-19  2.14E-19  3.11E-19  1.63E-19  3.83E-19  1.30E-19  3.13E-19
  2.55E-19  2.57E-19  3.52E-19  4.06E-19  5.78E-19  4.64E-19  7.93E-19  5.63E-19
  2.14E-19  3.89E-19  4.41E-19  7.48E-19  3.64E-19  4.30E-19  6.68E-19  6.76E-19
  5.05E-19  8.56E-19  1.83E-19  3.97E-19  4.41E-19  7.10E-19  4.28E-19  4.33E-19
  4.37E-19  3.24E-19  5.48E-19  3.87E-19  3.98E-19  5.28E-19  8.40E-19  7.21E-19
  7.01E-19  6.64E-19  6.10E-19  7.85E-19  8.70E-19  3.16E-19  4.48E-19  3.55E-19
  2.92E-19  9.04E-19  4.15E-19  5.05E-19  3.23E-19  3.78E-19  5.20E-19  6.40E-19
  4.67E-19  5.93E-19  9.43E-19  4.95E-19  2.91E-19  9.59E-19  2.90E-19  3.38E-19
  3.90E-19  7.70E-19  6.00E-19  6.48E-19  5.53E-19  3.73E-19  4.19E-19  7.14E-19
  4.56E-19  6.02E-19  7.75E-19  6.98E-19  6.36E-19  4.54E-19  7.29E-19  4.52E-19
  5.23E-19  8.89E-19  7.41E-19  6.95E-19  8.00E-19  5.34E-19  7.28E-19  6.26E-19
  9.57E-19  9.12E-19  9.47E-19  4.38E-19  6.57E-19  6.43E-19  5.79E-19  5.98E-19
  9.41E-19  8.12E-19  7.70E-19  9.82E-19  9.90E-19  5.05E-19  9.01E-19  7.97E-19
  7.37E-19  9.29E-19  9.49E-19  9.85E-19  8.60E-19  7.49E-18  1.10E-17  6.48E-18
  1.10E-16  3.39E-16  2.90E-15  5.33E-16  5.63E-16  8.75E-13  5.75E-12  5.24E-11
  5.07E-13  3.23E-11  9.94E-12  2.95E-07  2.13E-06  1.41E-05  1.64E-06  7.94E-06
 -1.4522E+00 -6.3854E-01 -6.3854E-01 -6.3854E-01 -3.5903E-01 -2.6133E-01
  1.1188E-01  1.1188E-01  1.1188E-01  2.8851E-01  2.8851E-01  2.8851E-01
  4.3050E-01  4.3050E-01  5.4613E-01  6.5820E-01  6.5820E-01  6.5820E-01
  8.3389E-01  8.3389E-01  8.3389E-01  1.1410E+00  1.1861E+00  1.1861E+00
  1.3300E+00  1.3300E+00  1.3300E+00  1.3811E+00  1.3811E+00  1.3811E+00
  1.4525E+00  1.4525E+00  1.4525E+00  1.5997E+00  1.8234E+00  1.8234E+00
  1.8234E+00  1.8370E+00  1.8370E+00  1.8908E+00  1.8908E+00  1.8908E+00
  2.0442E+00  2.0468E+00  2.0468E+00  2.2035E+00  2.2035E+00  2.2035E+00
  2.2039E+00  2.2039E+00  2.2039E+00  2.2425E+00  2.2425E+00  2.2425E+00
  2.2777E+00  2.3468E+00  2.3468E+00  2.3468E+00  2.3920E+00  2.8044E+00
  2.8044E+00  2.8044E+00  2.8784E+00  2.8784E+00  2.8784E+00  2.9850E+00
  2.9850E+00  3.1948E+00  3.1948E+00  3.1948E+00  3.1977E+00  3.1977E+00
  3.2210E+00  3.2210E+00  3.2210E+00  3.2298E+00  3.2298E+00  3.2298E+00
  3.2336E+00  3.2937E+00  3.2937E+00  3.2937E+00  3.3775E+00  3.7874E+00
  3.7874E+00  3.7976E+00  3.7976E+00  3.7976E+00  3.8138E+00  3.8138E+00
  3.8265E+00  3.8265E+00  3.8265E+00  3.8567E+00  3.9244E+00  3.9244E+00
  3.9244E+00  3.9468E+00  3.9468E+00  3.9468E+00  4.0326E+00  4.0474E+00
  4.0474E+00  4.0474E+00  4.1215E+00  4.1215E+00  4.1215E+00  4.2071E+00
  4.2071E+00  4.2071E+00  4.2203E+00  4.2203E+00  4.2345E+00  4.2378E+00
  4.2378E+00  4.2378E+00  4.4145E+00  4.4145E+00  4.4145E+00  4.4612E+00
  4.6018E+00  4.6018E+00  4.6709E+00  4.6709E+00  4.6709E+00  4.7651E+00
  4.7651E+00  4.7651E+00  4.7763E+00  4.7763E+00  4.7763E+00  4.8486E+00
  4.8486E+00  4.8486E+00  4.8842E+00  4.8842E+00  4.8842E+00  4.9350E+00
  4.9350E+00  4.9950E+00  5.1915E+00  5.1915E+00  5.2201E+00  5.2201E+00
  5.2201E+00  5.2758E+00  5.2758E+00  5.3209E+00  5.3785E+00  5.3785E+00
  5.3785E+00  5.4252E+00  5.4252E+00  5.4252E+00  5.4675E+00  5.5688E+00
  5.5688E+00  5.5688E+00  5.5805E+00  5.5805E+00  5.5805E+00  5.5871E+00
  5.5871E+00  5.5871E+00  5.5999E+00  5.5999E+00  5.5999E+00  5.6272E+00
  5.7632E+00  6.0217E+00  6.0217E+00  6.0217E+00  6.0372E+00  6.0372E+00
  6.0372E+00  6.0874E+00  6.0874E+00  6.1094E+00  6.1094E+00  6.1094E+00
  6.3924E+00  6.3924E+00  6.3924E+00  6.5132E+00  6.5132E+00  6.5132E+00
  6.5608E+00  6.5924E+00  6.5924E+00  6.5924E+00  6.7572E+00  6.7572E+00
  6.7572E+00  6.7846E+00  6.7957E+00  6.7957E+00  6.8067E+00  6.8067E+00
  6.8067E+00  6.8236E+00  6.8236E+00  6.8921E+00  6.8921E+00  6.8921E+00
  7.0089E+00  7.0089E+00  7.0089E+00  7.0398E+00  7.0398E+00  7.0398E+00
  7.0618E+00  7.0618E+00  7.1843E+00  7.1843E+00  7.1843E+00  7.1852E+00
  7.1852E+00  7.1852E+00  7.1908E+00  7.2352E+00  7.2352E+00  7.2352E+00
  7.2807E+00  7.2920E+00  7.2920E+00  7.2920E+00  7.2944E+00  7.2944E+00
  7.2944E+00  7.3151E+00  7.3151E+00  7.3170E+00  7.3170E+00  7.3814E+00
  7.3814E+00  7.3814E+00  7.4123E+00  7.4255E+00  7.4255E+00  7.4255E+00
  7.4560E+00  7.5410E+00  7.5410E+00  7.5410E+00  7.5450E+00  7.5489E+00
  7.5489E+00  7.5613E+00  7.5613E+00  7.5613E+00  7.5646E+00  7.5646E+00
  7.5737E+00  7.5737E+00  7.5737E+00  7.6001E+00  7.6001E+00  7.6001E+00
  7.8281E+00  7.8281E+00  7.8679E+00  7.8788E+00  7.8788E+00  7.8788E+00
  8.0594E+00  8.0594E+00  8.0594E+00  8.1825E+00  8.1825E+00  8.1825E+00
  8.2410E+00  8.2410E+00  8.2410E+00  8.2416E+00  8.2558E+00  8.2558E+00
  8.2558E+00  8.3064E+00  8.3064E+00  8.3064E+00  8.4406E+00  8.4406E+00
  8.4406E+00  8.4682E+00  8.4682E+00  8.4718E+00  8.4718E+00  8.4718E+00
  8.4778E+00  8.5170E+00  8.6751E+00  8.6751E+00  8.7510E+00  8.7510E+00
  8.7510E+00  8.7590E+00  8.7590E+00  8.7590E+00  8.7635E+00  8.7635E+00
  8.7635E+00  8.7682E+00  8.7682E+00  8.7872E+00  8.7872E+00  8.7872E+00
  8.8298E+00  8.8298E+00  8.8298E+00  9.0108E+00  9.0345E+00  9.0345E+00
  9.0345E+00  9.1112E+00  9.1112E+00  9.1611E+00  9.1611E+00  9.1611E+00
  9.1980E+00  9.2006E+00  9.2006E+00  9.2006E+00  9.2041E+00  9.2041E+00
  9.2041E+00  9.2370E+00  9.2370E+00  9.2370E+00  9.2710E+00  9.2710E+00
  9.4819E+00  9.5320E+00  9.5320E+00  9.5320E+00  9.7734E+00  9.7734E+00
  9.7734E+00  9.8249E+00  9.8249E+00  9.8249E+00  9.8446E+00  9.8618E+00
  9.8618E+00  9.9029E+00  9.9029E+00  9.9029E+00  9.9626E+00  9.9626E+00
  9.9626E+00  1.0028E+01  1.0122E+01  1.0122E+01  1.0122E+01  1.0204E+01
  1.0204E+01  1.0245E+01  1.0245E+01  1.0257E+01  1.0435E+01  1.0435E+01
  1.0435E+01  1.0478E+01  1.0478E+01  1.0478E+01  1.0508E+01  1.0508E+01
  1.0508E+01  1.0541E+01  1.0541E+01  1.0541E+01  1.0541E+01  1.0541E+01
  1.0549E+01  1.0574E+01  1.0597E+01  1.0597E+01  1.0597E+01  1.0618E+01
  1.0618E+01  1.0618E+01  1.0658E+01  1.0658E+01  1.0658E+01  1.0667E+01
  1.0667E+01  1.0667E+01  1.0694E+01  1.0694E+01  1.0694E+01  1.0814E+01
  1.0841E+01  1.0841E+01  1.0841E+01  1.0853E+01  1.0859E+01  1.0859E+01
  1.0870E+01  1.0870E+01  1.0870E+01  1.0874E+01  1.0874E+01  1.0885E+01
  1.0885E+01  1.0885E+01  1.0886E+01  1.0886E+01  1.0886E+01  1.0914E+01
  1.0914E+01  1.0914E+01  1.1071E+01  1.1071E+01  1.1071E+01  1.1128E+01
  1.1280E+01  1.1280E+01  1.1280E+01  1.1285E+01  1.1286E+01  1.1286E+01
  1.1314E+01  1.1314E+01  1.1314E+01  1.1331E+01  1.1331E+01  1.1331E+01
  1.1340E+01  1.1340E+01  1.1340E+01  1.1372E+01  1.1372E+01  1.1372E+01
  1.1410E+01  1.1410E+01  1.1419E+01  1.1594E+01  1.1594E+01  1.1594E+01
  1.1654E+01  1.1654E+01  1.1661E+01  1.1661E+01  1.1661E+01  1.1699E+01
  1.1699E+01  1.1699E+01  1.1714E+01  1.1714E+01  1.1714E+01  1.1767E+01
  1.1767E+01  1.1780E+01  1.1780E+01  1.1780E+01  1.1792E+01  1.1792E+01
  1.1792E+01  1.1815E+01  1.1863E+01  1.1863E+01  1.1863E+01  1.1890E+01
  1.1890E+01  1.1890E+01  1.1909E+01  1.1983E+01  1.2099E+01  1.2100E+01
  1.2100E+01  1.2100E+01  1.2111E+01  1.2111E+01  1.2148E+01  1.2148E+01
  1.2155E+01  1.2155E+01  1.2155E+01  1.2173E+01  1.2173E+01  1.2173E+01
  1.2174E+01  1.2174E+01  1.2174E+01  1.2174E+01  1.2174E+01  1.2174E+01
  1.2339E+01  1.2357E+01  1.2357E+01  1.2357E+01  1.2399E+01  1.2399E+01
  1.2399E+01  1.2405E+01  1.2405E+01  1.2405E+01  1.2413E+01  1.2413E+01
  1.2420E+01  1.2420E+01  1.2420E+01  1.2432E+01  1.2438E+01  1.2438E+01
  1.2440E+01  1.2440E+01  1.2440E+01  1.2470E+01  1.2470E+01  1.2471E+01
  1.2474E+01  1.2475E+01
  prteigrs : nnsclo,ikpt=  150    1 max resid (incl. the buffer)=  1.41293E-05
 prteigrs : prtvol=0 or 1, do not print more k-points.
 
  prteigrs : nnsclo,ikpt=  150    2 max resid (incl. the buffer)=  6.07490E-04
  prteigrs : nnsclo,ikpt=  150    3 max resid (incl. the buffer)=  8.93249E-04
  prteigrs : nnsclo,ikpt=  150    4 max resid (incl. the buffer)=  8.21997E-05
  prteigrs : nnsclo,ikpt=  150    5 max resid (incl. the buffer)=  3.72472E-03
  prteigrs : nnsclo,ikpt=  150    6 max resid (incl. the buffer)=  9.40403E-05
  prteigrs : nnsclo,ikpt=  150    7 max resid (incl. the buffer)=  3.60519E-05
  prteigrs : nnsclo,ikpt=  150    8 max resid (incl. the buffer)=  1.11837E-04
  prteigrs : nnsclo,ikpt=  150    9 max resid (incl. the buffer)=  2.73007E-04
  prteigrs : nnsclo,ikpt=  150   10 max resid (incl. the buffer)=  4.20759E-05
  prteigrs : nnsclo,ikpt=  150   11 max resid (incl. the buffer)=  4.57359E-04
  prteigrs : nnsclo,ikpt=  150   12 max resid (incl. the buffer)=  8.32695E-04
  prteigrs : nnsclo,ikpt=  150   13 max resid (incl. the buffer)=  2.62637E-04
  prteigrs : nnsclo,ikpt=  150   14 max resid (incl. the buffer)=  6.47717E-05
  prteigrs : nnsclo,ikpt=  150   15 max resid (incl. the buffer)=  3.40780E-04
  prteigrs : nnsclo,ikpt=  150   16 max resid (incl. the buffer)=  2.47557E-04
 

--- !ResultsGS
iteration_state: {dtset: 2, }
comment   : Summary of ground state results
lattice_vectors:
- [  3.9125336,   0.0000000,   5.5331581, ]
- [ -1.9562668,   3.3883535,   5.5331581, ]
- [ -1.9562668,  -3.3883535,   5.5331581, ]
lattice_lengths: [   6.77671,    6.77671,    6.77671, ]
lattice_angles: [ 60.000,  60.000,  60.000, ] # degrees, (23, 13, 12)
lattice_volume:   2.2006001E+02
convergence: {deltae:  0.000E+00, res2:  0.000E+00, residm:  9.973E-19, diffor:  0.000E+00, }
etotal    :  -8.37780997E+01
entropy   :   0.00000000E+00
fermie    :   3.08318273E-01
cartesian_stress_tensor: null
pressure_GPa: null
xred      :
- [  0.0000E+00,   0.0000E+00,   0.0000E+00, Zr]
- [  2.5000E-01,   2.5000E-01,   2.5000E-01,  O]
- [  7.5000E-01,   7.5000E-01,   7.5000E-01,  O]
cartesian_forces: null
force_length_stats: {min: null, max: null, mean: null, }
...

 Integrated electronic density in atomic spheres:
 ------------------------------------------------
 Atom  Sphere_radius  Integrated_density
    1        2.00000          8.20158081
    2        2.00000          6.29938113
    3        2.00000          6.29938113
================================================================================
 
 ----iterations are completed or convergence reached----
 
 Mean square residual over all n,k,spin=   31.837E-20; max=  99.727E-20
 reduced coordinates (array xred) for    3 atoms
       0.000000000000      0.000000000000      0.000000000000
       0.250000000000      0.250000000000      0.250000000000
       0.750000000000      0.750000000000      0.750000000000
 
 cartesian coordinates (angstrom) at end:
    1      0.00000000000000     0.00000000000000     0.00000000000000
    2     -0.00000000000000     0.00000000000000     2.19601585969007
    3      0.00000000000000     0.00000000000000     6.58804757907020
 length scales=  6.776706978283  6.776706978283  6.776706978283 bohr
              =  3.586078882200  3.586078882200  3.586078882200 angstroms
 prteigrs : about to open file gwo_DS2_EIG
 Eigenvalues (hartree) for nkpt=  16  k points:
 kpt#   1, nband=512, wtk=  0.00463, kpt=  0.0000  0.0000  0.0000 (reduced coord)
  -1.45215   -0.63854   -0.63854   -0.63854   -0.35903   -0.26133    0.11188    0.11188
   0.11188    0.28851    0.28851    0.28851    0.43050    0.43050    0.54613    0.65820
   0.65820    0.65820    0.83389    0.83389    0.83389    1.14101    1.18608    1.18608
   1.33000    1.33000    1.33000    1.38107    1.38107    1.38107    1.45247    1.45247
   1.45247    1.59974    1.82341    1.82341    1.82341    1.83699    1.83699    1.89080
   1.89080    1.89080    2.04419    2.04676    2.04676    2.20352    2.20352    2.20352
   2.20394    2.20394    2.20394    2.24250    2.24250    2.24250    2.27766    2.34683
   2.34683    2.34683    2.39200    2.80444    2.80444    2.80444    2.87836    2.87836
   2.87836    2.98500    2.98500    3.19479    3.19479    3.19479    3.19770    3.19770
   3.22097    3.22097    3.22097    3.22976    3.22976    3.22976    3.23361    3.29371
   3.29371    3.29371    3.37751    3.78744    3.78744    3.79759    3.79759    3.79759
   3.81376    3.81376    3.82650    3.82650    3.82650    3.85666    3.92444    3.92444
   3.92444    3.94682    3.94682    3.94682    4.03264    4.04739    4.04739    4.04739
   4.12154    4.12154    4.12154    4.20708    4.20708    4.20708    4.22027    4.22027
   4.23453    4.23782    4.23782    4.23782    4.41452    4.41452    4.41452    4.46118
   4.60182    4.60182    4.67086    4.67086    4.67086    4.76507    4.76507    4.76507
   4.77626    4.77626    4.77626    4.84862    4.84862    4.84862    4.88422    4.88422
   4.88422    4.93500    4.93500    4.99498    5.19148    5.19148    5.22009    5.22009
   5.22009    5.27576    5.27576    5.32091    5.37851    5.37851    5.37851    5.42516
   5.42516    5.42516    5.46750    5.56880    5.56880    5.56880    5.58048    5.58048
   5.58048    5.58708    5.58708    5.58708    5.59986    5.59986    5.59986    5.62722
   5.76324    6.02175    6.02175    6.02175    6.03725    6.03725    6.03725    6.08742
   6.08742    6.10943    6.10943    6.10943    6.39237    6.39237    6.39237    6.51323
   6.51323    6.51323    6.56076    6.59239    6.59239    6.59239    6.75720    6.75720
   6.75720    6.78461    6.79569    6.79569    6.80669    6.80669    6.80669    6.82360
   6.82360    6.89212    6.89212    6.89212    7.00893    7.00893    7.00893    7.03979
   7.03979    7.03979    7.06182    7.06182    7.18429    7.18429    7.18429    7.18522
   7.18522    7.18522    7.19083    7.23524    7.23524    7.23524    7.28071    7.29196
   7.29196    7.29196    7.29443    7.29443    7.29443    7.31510    7.31510    7.31698
   7.31698    7.38145    7.38145    7.38145    7.41229    7.42552    7.42552    7.42552
   7.45604    7.54100    7.54100    7.54100    7.54496    7.54887    7.54887    7.56132
   7.56132    7.56132    7.56462    7.56462    7.57367    7.57367    7.57367    7.60006
   7.60006    7.60006    7.82811    7.82811    7.86792    7.87880    7.87880    7.87880
   8.05941    8.05941    8.05941    8.18249    8.18249    8.18249    8.24104    8.24104
   8.24104    8.24158    8.25576    8.25576    8.25576    8.30644    8.30644    8.30644
   8.44059    8.44059    8.44059    8.46817    8.46817    8.47184    8.47184    8.47184
   8.47781    8.51696    8.67512    8.67512    8.75105    8.75105    8.75105    8.75898
   8.75898    8.75898    8.76347    8.76347    8.76347    8.76824    8.76824    8.78720
   8.78720    8.78720    8.82975    8.82975    8.82975    9.01077    9.03450    9.03450
   9.03450    9.11117    9.11117    9.16108    9.16108    9.16108    9.19798    9.20060
   9.20060    9.20060    9.20415    9.20415    9.20415    9.23703    9.23703    9.23703
   9.27096    9.27096    9.48189    9.53204    9.53204    9.53204    9.77340    9.77340
   9.77340    9.82488    9.82488    9.82488    9.84456    9.86181    9.86181    9.90290
   9.90290    9.90291    9.96257    9.96257    9.96257   10.02849   10.12192   10.12192
  10.12192   10.20435   10.20435   10.24475   10.24475   10.25728   10.43542   10.43542
  10.43542   10.47836   10.47836   10.47836   10.50813   10.50813   10.50813   10.54082
  10.54082   10.54125   10.54125   10.54125   10.54866   10.57372   10.59667   10.59668
  10.59668   10.61792   10.61792   10.61792   10.65751   10.65751   10.65751   10.66734
  10.66734   10.66734   10.69423   10.69423   10.69423   10.81355   10.84058   10.84058
  10.84058   10.85332   10.85922   10.85922   10.86974   10.86974   10.86974   10.87395
  10.87395   10.88491   10.88491   10.88491   10.88597   10.88597   10.88597   10.91359
  10.91359   10.91359   11.07067   11.07067   11.07067   11.12822   11.27967   11.27967
  11.27967   11.28493   11.28570   11.28570   11.31423   11.31423   11.31423   11.33105
  11.33105   11.33105   11.33954   11.33954   11.33954   11.37173   11.37173   11.37173
  11.41035   11.41035   11.41900   11.59361   11.59361   11.59361   11.65388   11.65388
  11.66112   11.66112   11.66112   11.69895   11.69895   11.69895   11.71375   11.71375
  11.71375   11.76720   11.76720   11.77987   11.77987   11.77987   11.79208   11.79208
  11.79208   11.81518   11.86306   11.86306   11.86306   11.89039   11.89039   11.89039
  11.90872   11.98322   12.09884   12.10035   12.10035   12.10035   12.11079   12.11079
  12.14811   12.14811   12.15519   12.15519   12.15519   12.17331   12.17331   12.17331
  12.17370   12.17370   12.17370   12.17401   12.17401   12.17401   12.33923   12.35718
  12.35718   12.35718   12.39858   12.39858   12.39858   12.40461   12.40461   12.40461
  12.41307   12.41307   12.41990   12.41990   12.41990   12.43168   12.43817   12.43817
  12.44007   12.44007   12.44007   12.47011   12.47019   12.47093   12.47393   12.47511
 prteigrs : prtvol=0 or 1, do not print more k-points.
 
 
================================================================================
== DATASET  3 ==================================================================
-   mpi_nproc: 1, omp_nthreads: -1 (-1 if OMP is not activated)
 

--- !DatasetInfo
iteration_state: {dtset: 3, }
dimensions: {natom: 3, nkpt: 16, mband: 512, nsppol: 1, nspinor: 1, nspden: 1, mpw: 1759, }
cutoff_energies: {ecut:  30.0, pawecutdg:  -1.0, }
electrons: {nelect:   2.40000000E+01, charge:   0.00000000E+00, occopt:   1.00000000E+00, tsmear:   1.00000000E-02, }
meta: {optdriver: 3, gwcalctyp: 0, }
...

 mkfilename : getwfk/=0, take file _WFK from output of DATASET   2.
 
 SCREENING: Calculation of the susceptibility and dielectric matrices 
 
 Based on a program developped by R.W. Godby, V. Olevano, G. Onida, and L. Reining.
 Incorporated in ABINIT by V. Olevano, G.-M. Rignanese, and M. Torrent.
.Using single precision arithmetic ; gwpc =  4
 
 Real(R)+Recip(G) space primitive vectors, cartesian coordinates (Bohr,Bohr^-1):
 R(1)=  3.9125336  0.0000000  5.5331581  G(1)=  0.1703926  0.0000000  0.0602429
 R(2)= -1.9562668  3.3883535  5.5331581  G(2)= -0.0851963  0.1475643  0.0602429
 R(3)= -1.9562668 -3.3883535  5.5331581  G(3)= -0.0851963 -0.1475643  0.0602429
 Unit cell volume ucvol=  2.2006001E+02 bohr^3
 Angles (23,13,12)=  6.00000000E+01  6.00000000E+01  6.00000000E+01 degrees
--------------------------------------------------------------------------------
 
 ==== K-mesh for the wavefunctions ====
 Number of points in the irreducible wedge :    16
 Reduced coordinates and weights : 
 
     1)     0.00000000E+00  0.00000000E+00  0.00000000E+00       0.00463
     2)     1.66666667E-01  0.00000000E+00  0.00000000E+00       0.03704
     3)     3.33333333E-01  0.00000000E+00  0.00000000E+00       0.03704
     4)     5.00000000E-01  0.00000000E+00  0.00000000E+00       0.01852
     5)     1.66666667E-01  1.66666667E-01  0.00000000E+00       0.02778
     6)     3.33333333E-01  1.66666667E-01  0.00000000E+00       0.11111
     7)     5.00000000E-01  1.66666667E-01  0.00000000E+00       0.11111
     8)    -3.33333333E-01  1.66666667E-01  0.00000000E+00       0.11111
     9)    -1.66666667E-01  1.66666667E-01  0.00000000E+00       0.05556
    10)     3.33333333E-01  3.33333333E-01  0.00000000E+00       0.02778
    11)     5.00000000E-01  3.33333333E-01  0.00000000E+00       0.11111
    12)    -3.33333333E-01  3.33333333E-01  0.00000000E+00       0.05556
    13)     5.00000000E-01  5.00000000E-01  0.00000000E+00       0.01389
    14)     5.00000000E-01  3.33333333E-01  1.66666667E-01       0.11111
    15)    -3.33333333E-01  3.33333333E-01  1.66666667E-01       0.11111
    16)    -3.33333333E-01  5.00000000E-01  1.66666667E-01       0.05556
 
 Together with 48 symmetry operations and time-reversal symmetry 
 yields   216 points in the full Brillouin Zone.
 
 
 ==== Q-mesh for the screening function ====
 Number of points in the irreducible wedge :    16
 Reduced coordinates and weights : 
 
     1)     0.00000000E+00  0.00000000E+00  0.00000000E+00       0.00463
     2)     1.66666667E-01  0.00000000E+00  0.00000000E+00       0.03704
     3)     3.33333333E-01  0.00000000E+00  0.00000000E+00       0.03704
     4)     5.00000000E-01  0.00000000E+00  0.00000000E+00       0.01852
     5)     1.66666667E-01  1.66666667E-01  0.00000000E+00       0.02778
     6)     3.33333333E-01  1.66666667E-01  0.00000000E+00       0.11111
     7)     5.00000000E-01  1.66666667E-01  0.00000000E+00       0.11111
     8)    -3.33333333E-01  1.66666667E-01  0.00000000E+00       0.11111
     9)    -1.66666667E-01  1.66666667E-01  0.00000000E+00       0.05556
    10)     3.33333333E-01  3.33333333E-01  0.00000000E+00       0.02778
    11)     5.00000000E-01  3.33333333E-01  0.00000000E+00       0.11111
    12)    -3.33333333E-01  3.33333333E-01  0.00000000E+00       0.05556
    13)     5.00000000E-01  5.00000000E-01  0.00000000E+00       0.01389
    14)     5.00000000E-01  3.33333333E-01  1.66666667E-01       0.11111
    15)    -3.33333333E-01  3.33333333E-01  1.66666667E-01       0.11111
    16)    -3.33333333E-01  5.00000000E-01  1.66666667E-01       0.05556
 
 Together with 48 symmetry operations and time-reversal symmetry 
 yields   216 points in the full Brillouin Zone.
 
 
 setmesh: FFT mesh size selected  =    25x   25x   25
          total number of points  =        15625
 
 
- screening: taking advantage of time-reversal symmetry 
- Maximum band index for partially occupied states nbvw = 12
- Remaining bands to be divided among processors   nbcw = 500
- Number of bands treated by each node ~500
 
 Number of electrons calculated from density =   24.0000; Expected =   24.0000
 average of density, n =  0.109061
 r_s =    1.2984
 omega_plasma =   31.8560 [eV]
 
 
 calculating chi0 at frequencies [eV] :
  1    0.000000E+00    0.000000E+00
  2    0.000000E+00    3.185595E+01
 
 
--------------------------------------------------------------------------------
  q-point number  1        q = ( 0.000000, 0.000000, 0.000000) [r.l.u.]
--------------------------------------------------------------------------------
  chi0(G,G') at the    1 th omega   0.0000   0.0000 [eV]
       1       2       3       4       5       6       7       8       9
    1  -0.000   0.000  -0.000  -0.000   0.000   0.000  -0.000  -0.000   0.000
        0.000   0.000  -0.000  -0.000  -0.000   0.000  -0.000  -0.000   0.000
 
    2   0.000 -19.897   3.871  -4.646   5.108  -4.646   5.108  -4.646   5.108
       -0.000   0.000  -0.000  -0.000  -0.000  -0.000   0.000   0.000  -0.000
 
  chi0(G,G') at the    2 th omega   0.0000  31.8560 [eV]
       1       2       3       4       5       6       7       8       9
    1  -0.000   0.000  -0.000  -0.000   0.000   0.000  -0.000  -0.000   0.000
        0.000   0.000  -0.000  -0.000  -0.000   0.000  -0.000  -0.000   0.000
 
    2   0.000  -7.123   0.459   0.177   0.571   0.177   0.571   0.177   0.571
       -0.000   0.000  -0.000  -0.000  -0.000  -0.000   0.000   0.000  -0.000
 
 For q-point:  0.000010 0.000020 0.000030
  dielectric constant =   5.6166
  dielectric constant without local fields =   5.9972
 
  Average fulfillment of the sum rule on Im[epsilon] for q-point    1 :     97.45  [%]
  Heads and wings of the symmetrical epsilon^-1(G,G') 
 
   Upper and lower wings at the    1 th omega   0.0000   0.0000 [eV]
       1       2       3       4       5       6       7       8       9
      0.178   0.005  -0.005  -0.015   0.015   0.015  -0.015  -0.005   0.005
      0.000   0.000  -0.000   0.000  -0.000   0.000  -0.000  -0.000   0.000
       1       2       3       4       5       6       7       8       9
      0.178   0.005  -0.005  -0.015   0.015   0.015  -0.015  -0.005   0.005
      0.000  -0.000   0.000  -0.000   0.000  -0.000   0.000   0.000  -0.000
 
 
   Upper and lower wings at the    2 th omega   0.0000  31.8560 [eV]
       1       2       3       4       5       6       7       8       9
      0.664   0.012  -0.012  -0.035   0.035   0.035  -0.035  -0.012   0.012
      0.000   0.000  -0.000  -0.000  -0.000   0.000  -0.000  -0.000   0.000
       1       2       3       4       5       6       7       8       9
      0.664   0.012  -0.012  -0.035   0.035   0.035  -0.035  -0.012   0.012
      0.000  -0.000   0.000   0.000   0.000  -0.000   0.000   0.000  -0.000
 
 
 
 
--------------------------------------------------------------------------------
  q-point number  2        q = ( 0.166667, 0.000000, 0.000000) [r.l.u.]
--------------------------------------------------------------------------------
  chi0(G,G') at the    1 th omega   0.0000   0.0000 [eV]
       1       2       3       4       5       6       7       8       9
    1  -2.778  -1.012   0.274  -0.321  -0.499  -0.321  -0.499  -0.321  -0.499
        0.000   0.000   0.000   0.000  -0.000  -0.000   0.000   0.000  -0.000
 
    2  -1.012 -20.402   3.761  -5.191   5.315  -5.191   5.315  -5.191   5.315
       -0.000   0.000  -0.000  -0.000  -0.000   0.000   0.000  -0.000   0.000
 
  chi0(G,G') at the    2 th omega   0.0000  31.8560 [eV]
       1       2       3       4       5       6       7       8       9
    1  -0.338  -0.391   0.326   0.045  -0.187   0.045  -0.187   0.045  -0.187
        0.000   0.000   0.000   0.000  -0.000   0.000   0.000   0.000  -0.000
 
    2  -0.391  -8.323   0.441  -0.218   0.768  -0.218   0.768  -0.218   0.768
       -0.000   0.000  -0.000  -0.000  -0.000   0.000   0.000  -0.000   0.000
 
  Average fulfillment of the sum rule on Im[epsilon] for q-point    2 :     98.88  [%]
 
 
--------------------------------------------------------------------------------
  q-point number  3        q = ( 0.333333, 0.000000, 0.000000) [r.l.u.]
--------------------------------------------------------------------------------
  chi0(G,G') at the    1 th omega   0.0000   0.0000 [eV]
       1       2       3       4       5       6       7       8       9
    1  -8.306  -2.087   0.061  -1.612  -0.969  -1.612  -0.969  -1.612  -0.969
        0.000   0.000   0.000  -0.000  -0.000  -0.000   0.000  -0.000  -0.000
 
    2  -2.087 -20.481   3.459  -5.643   5.180  -5.643   5.180  -5.643   5.180
       -0.000   0.000  -0.000  -0.000   0.000   0.000   0.000   0.000   0.000
 
  chi0(G,G') at the    2 th omega   0.0000  31.8560 [eV]
       1       2       3       4       5       6       7       8       9
    1  -1.275  -0.798   0.543  -0.069  -0.464  -0.069  -0.464  -0.069  -0.464
        0.000   0.000   0.000   0.000  -0.000   0.000   0.000   0.000  -0.000
 
    2  -0.798  -9.278   0.388  -0.655   0.952  -0.655   0.952  -0.655   0.952
       -0.000   0.000  -0.000  -0.000   0.000   0.000   0.000   0.000   0.000
 
  Average fulfillment of the sum rule on Im[epsilon] for q-point    3 :     98.30  [%]
 
 
--------------------------------------------------------------------------------
  q-point number  4        q = ( 0.500000, 0.000000, 0.000000) [r.l.u.]
--------------------------------------------------------------------------------
  chi0(G,G') at the    1 th omega   0.0000   0.0000 [eV]
       1       2       3       4       5       6       7       8       9
    1 -13.259  -2.893  -0.033  -2.860  -1.211  -2.860  -1.211  -2.860  -1.211
        0.000   0.000   0.000   0.000  -0.000  -0.000  -0.000   0.000  -0.000
 
    2  -2.893 -20.210   2.941  -5.891   4.797  -5.891   4.797  -5.891   4.797
       -0.000   0.000  -0.000  -0.000   0.000   0.000   0.000   0.000   0.000
 
  chi0(G,G') at the    2 th omega   0.0000  31.8560 [eV]
       1       2       3       4       5       6       7       8       9
    1  -2.624  -1.180   0.619  -0.311  -0.778  -0.311  -0.778  -0.311  -0.778
        0.000   0.000   0.000   0.000  -0.000   0.000  -0.000   0.000  -0.000
 
    2  -1.180  -9.977   0.304  -1.093   1.109  -1.093   1.109  -1.093   1.109
       -0.000   0.000  -0.000  -0.000   0.000   0.000   0.000   0.000   0.000
 
  Average fulfillment of the sum rule on Im[epsilon] for q-point    4 :     98.09  [%]
 
 
--------------------------------------------------------------------------------
  q-point number  5        q = ( 0.166667, 0.166667, 0.000000) [r.l.u.]
--------------------------------------------------------------------------------
  chi0(G,G') at the    1 th omega   0.0000   0.0000 [eV]
       1       2       3       4       5       6       7       8       9
    1  -3.597  -0.905  -0.123  -0.123  -0.905  -0.123  -0.905  -0.905  -0.123
        0.000   0.000  -0.000  -0.000   0.000  -0.000   0.000   0.000  -0.000
 
    2  -0.905 -20.158   3.803  -4.610   5.312  -4.610   5.312  -5.562   4.928
       -0.000   0.000  -0.000  -0.000  -0.000  -0.000  -0.000   0.000   0.000
 
  chi0(G,G') at the    2 th omega   0.0000  31.8560 [eV]
       1       2       3       4       5       6       7       8       9
    1  -0.448  -0.315   0.152   0.152  -0.315   0.152  -0.315  -0.315   0.152
        0.000   0.000  -0.000  -0.000   0.000  -0.000   0.000   0.000  -0.000
 
    2  -0.315  -8.021   0.456   0.084   0.778   0.084   0.778  -0.544   0.583
       -0.000   0.000  -0.000  -0.000  -0.000  -0.000  -0.000   0.000   0.000
 
  Average fulfillment of the sum rule on Im[epsilon] for q-point    5 :     98.78  [%]
 
 
--------------------------------------------------------------------------------
  q-point number  6        q = ( 0.333333, 0.166667, 0.000000) [r.l.u.]
--------------------------------------------------------------------------------
  chi0(G,G') at the    1 th omega   0.0000   0.0000 [eV]
       1       2       3       4       5       6       7       8       9
    1  -7.920  -1.794  -0.340  -1.003  -1.385  -1.003  -1.385  -1.633  -0.761
        0.000   0.000   0.000  -0.000   0.000  -0.000   0.000  -0.000   0.000
 
    2  -1.794 -20.341   3.599  -5.141   5.291  -5.141   5.291  -5.881   4.994
       -0.000   0.000  -0.000  -0.000  -0.000   0.000   0.000  -0.000   0.000
 
  chi0(G,G') at the    2 th omega   0.0000  31.8560 [eV]
       1       2       3       4       5       6       7       8       9
    1  -1.178  -0.706   0.398   0.093  -0.541   0.093  -0.541  -0.370  -0.146
        0.000   0.000  -0.000   0.000   0.000  -0.000   0.000  -0.000  -0.000
 
    2  -0.706  -9.030   0.416  -0.358   0.958  -0.358   0.958  -0.911   0.786
       -0.000   0.000  -0.000  -0.000  -0.000   0.000   0.000  -0.000   0.000
 
  Average fulfillment of the sum rule on Im[epsilon] for q-point    6 :     98.33  [%]
 
 
--------------------------------------------------------------------------------
  q-point number  7        q = ( 0.500000, 0.166667, 0.000000) [r.l.u.]
--------------------------------------------------------------------------------
  chi0(G,G') at the    1 th omega   0.0000   0.0000 [eV]
       1       2       3       4       5       6       7       8       9
    1 -12.547  -2.550  -0.559  -2.307  -1.593  -2.307  -1.593  -2.657  -1.188
        0.000   0.000   0.000  -0.000   0.000  -0.000   0.000  -0.000   0.000
 
    2  -2.550 -20.189   3.214  -5.530   5.019  -5.530   5.019  -6.059   4.724
       -0.000   0.000  -0.000  -0.000  -0.000   0.000   0.000  -0.000   0.000
 
  chi0(G,G') at the    2 th omega   0.0000  31.8560 [eV]
       1       2       3       4       5       6       7       8       9
    1  -2.376  -1.086   0.517  -0.117  -0.816  -0.117  -0.816  -0.542  -0.501
        0.000   0.000  -0.000  -0.000  -0.000  -0.000   0.000  -0.000  -0.000
 
    2  -1.086  -9.795   0.344  -0.820   1.115  -0.820   1.115  -1.286   0.968
       -0.000   0.000  -0.000  -0.000  -0.000   0.000   0.000  -0.000   0.000
 
  Average fulfillment of the sum rule on Im[epsilon] for q-point    7 :     98.07  [%]
 
 
--------------------------------------------------------------------------------
  q-point number  8        q = (-0.333333, 0.166667, 0.000000) [r.l.u.]
--------------------------------------------------------------------------------
  chi0(G,G') at the    1 th omega   0.0000   0.0000 [eV]
       1       2       3       4       5       6       7       8       9
    1 -10.944  -0.571  -2.247  -1.355  -2.081  -1.355  -2.081  -1.527  -1.805
        0.000  -0.000  -0.000  -0.000   0.000  -0.000  -0.000   0.000   0.000
 
    2  -0.571 -16.114   3.389  -2.451   3.163  -2.451   3.163  -3.764   1.782
        0.000   0.000  -0.000  -0.000  -0.000   0.000   0.000  -0.000  -0.000
 
  chi0(G,G') at the    2 th omega   0.0000  31.8560 [eV]
       1       2       3       4       5       6       7       8       9
    1  -1.935   0.492  -0.961  -0.507  -0.339  -0.507  -0.339  -0.815   0.150
        0.000  -0.000  -0.000  -0.000  -0.000   0.000  -0.000   0.000   0.000
 
    2   0.492  -3.830   0.372   0.864   0.249   0.864   0.249   0.185   0.038
        0.000   0.000  -0.000  -0.000  -0.000   0.000   0.000  -0.000  -0.000
 
  Average fulfillment of the sum rule on Im[epsilon] for q-point    8 :     98.13  [%]
 
 
--------------------------------------------------------------------------------
  q-point number  9        q = (-0.166667, 0.166667, 0.000000) [r.l.u.]
--------------------------------------------------------------------------------
  chi0(G,G') at the    1 th omega   0.0000   0.0000 [eV]
       1       2       3       4       5       6       7       8       9
    1  -6.230  -0.374  -1.389  -0.949  -0.949  -0.949  -0.949  -1.389  -0.374
        0.000   0.000   0.000  -0.000   0.000   0.000  -0.000   0.000   0.000
 
    2  -0.374 -18.369   3.697  -3.402   4.259  -3.402   4.259  -4.651   3.299
       -0.000   0.000  -0.000  -0.000  -0.000   0.000   0.000  -0.000  -0.000
 
  chi0(G,G') at the    2 th omega   0.0000  31.8560 [eV]
       1       2       3       4       5       6       7       8       9
    1  -0.872   0.327  -0.572  -0.195  -0.195  -0.195  -0.195  -0.572   0.327
        0.000   0.000   0.000  -0.000   0.000   0.000  -0.000   0.000   0.000
 
    2   0.327  -5.346   0.433   0.730   0.405   0.730   0.405   0.034   0.190
       -0.000   0.000  -0.000  -0.000  -0.000   0.000   0.000  -0.000  -0.000
 
  Average fulfillment of the sum rule on Im[epsilon] for q-point    9 :     98.48  [%]
 
 
--------------------------------------------------------------------------------
  q-point number 10        q = ( 0.333333, 0.333333, 0.000000) [r.l.u.]
--------------------------------------------------------------------------------
  chi0(G,G') at the    1 th omega   0.0000   0.0000 [eV]
       1       2       3       4       5       6       7       8       9
    1 -10.366  -1.982  -1.072  -1.072  -1.982  -1.072  -1.982  -1.982  -1.072
        0.000   0.000  -0.000  -0.000   0.000  -0.000   0.000   0.000  -0.000
 
    2  -1.982 -20.102   3.757  -4.574   5.261  -4.574   5.261  -6.063   4.572
       -0.000   0.000  -0.000   0.000  -0.000   0.000  -0.000   0.000   0.000
 
  chi0(G,G') at the    2 th omega   0.0000  31.8560 [eV]
       1       2       3       4       5       6       7       8       9
    1  -1.669  -0.713   0.100   0.100  -0.713   0.100  -0.713  -0.713   0.100
        0.000   0.000  -0.000  -0.000   0.000  -0.000   0.000   0.000  -0.000
 
    2  -0.713  -8.888   0.453  -0.179   0.987  -0.179   0.987  -1.206   0.622
       -0.000   0.000  -0.000   0.000  -0.000   0.000  -0.000   0.000   0.000
 
  Average fulfillment of the sum rule on Im[epsilon] for q-point   10 :     98.17  [%]
 
 
--------------------------------------------------------------------------------
  q-point number 11        q = ( 0.500000, 0.333333, 0.000000) [r.l.u.]
--------------------------------------------------------------------------------
  chi0(G,G') at the    1 th omega   0.0000   0.0000 [eV]
       1       2       3       4       5       6       7       8       9
    1 -13.727  -2.385  -1.523  -1.905  -2.279  -1.905  -2.279  -2.639  -1.592
        0.000   0.000   0.000  -0.000   0.000  -0.000   0.000   0.000  -0.000
 
    2  -2.385 -19.983   3.534  -4.992   5.109  -4.992   5.109  -6.159   4.582
       -0.000   0.000  -0.000  -0.000  -0.000   0.000   0.000  -0.000   0.000
 
  chi0(G,G') at the    2 th omega   0.0000  31.8560 [eV]
       1       2       3       4       5       6       7       8       9
    1  -2.640  -1.061   0.242  -0.052  -0.938  -0.052  -0.938  -0.820  -0.278
        0.000   0.000   0.000  -0.000   0.000  -0.000   0.000   0.000  -0.000
 
    2  -1.061  -9.670   0.399  -0.629   1.139  -0.629   1.139  -1.513   0.825
       -0.000   0.000  -0.000  -0.000  -0.000   0.000   0.000  -0.000   0.000
 
  Average fulfillment of the sum rule on Im[epsilon] for q-point   11 :     98.02  [%]
 
 
--------------------------------------------------------------------------------
  q-point number 12        q = (-0.333333, 0.333333, 0.000000) [r.l.u.]
--------------------------------------------------------------------------------
  chi0(G,G') at the    1 th omega   0.0000   0.0000 [eV]
       1       2       3       4       5       6       7       8       9
    1 -13.912  -1.797  -2.125  -2.192  -2.192  -2.192  -2.192  -2.125  -1.797
        0.000   0.000   0.000  -0.000  -0.000  -0.000  -0.000   0.000   0.000
 
    2  -1.797 -16.551   3.535  -2.777   3.410  -2.777   3.410  -4.418   0.367
       -0.000   0.000  -0.000  -0.000  -0.000   0.000   0.000  -0.000  -0.000
 
  chi0(G,G') at the    2 th omega   0.0000  31.8560 [eV]
       1       2       3       4       5       6       7       8       9
    1  -3.025   0.259  -1.161  -0.658  -0.658  -0.658  -0.658  -1.161   0.259
        0.000   0.000   0.000  -0.000  -0.000  -0.000  -0.000   0.000   0.000
 
    2   0.259  -3.914   0.377   0.808   0.339   0.808   0.339  -0.352  -0.083
       -0.000   0.000  -0.000  -0.000  -0.000   0.000   0.000  -0.000  -0.000
 
  Average fulfillment of the sum rule on Im[epsilon] for q-point   12 :     98.00  [%]
 
 
--------------------------------------------------------------------------------
  q-point number 13        q = ( 0.500000, 0.500000, 0.000000) [r.l.u.]
--------------------------------------------------------------------------------
  chi0(G,G') at the    1 th omega   0.0000   0.0000 [eV]
       1       2       3       4       5       6       7       8       9
    1 -15.986  -2.714  -2.198  -2.198  -2.714  -2.198  -2.714  -2.714  -2.198
        0.000   0.000  -0.000  -0.000   0.000  -0.000   0.000   0.000  -0.000
 
    2  -2.714 -19.918   3.944  -4.766   5.130  -4.766   5.130  -6.221   4.379
       -0.000   0.000  -0.000  -0.000   0.000  -0.000   0.000   0.000   0.000
 
  chi0(G,G') at the    2 th omega   0.0000  31.8560 [eV]
       1       2       3       4       5       6       7       8       9
    1  -3.361  -1.114  -0.136  -0.136  -1.114  -0.136  -1.114  -1.114  -0.136
        0.000   0.000  -0.000  -0.000   0.000  -0.000   0.000   0.000  -0.000
 
    2  -1.114  -9.629   0.465  -0.565   1.179  -0.565   1.179  -1.755   0.693
       -0.000   0.000  -0.000  -0.000   0.000  -0.000   0.000   0.000   0.000
 
  Average fulfillment of the sum rule on Im[epsilon] for q-point   13 :     97.99  [%]
 
 
--------------------------------------------------------------------------------
  q-point number 14        q = ( 0.500000, 0.333333, 0.166667) [r.l.u.]
--------------------------------------------------------------------------------
  chi0(G,G') at the    1 th omega   0.0000   0.0000 [eV]
       1       2       3       4       5       6       7       8       9
    1 -11.447  -1.991  -1.292  -1.488  -2.077  -1.292  -1.991  -2.077  -1.488
        0.000   0.000  -0.000   0.000   0.000  -0.000   0.000   0.000   0.000
 
[...]

-<BEGIN_TIMER mpi_nprocs = 1, omp_nthreads = 1, mpi_rank = world>
- cpu_time =        5647.2, wall_time =        5693.2
-
- routine                            cpu     %          wall     %      number of calls Gflops    Speedup Efficacity
-                                                                        (-1=no count)
- projbd                         1946.976  34.5      1962.119  34.5         955218      -1.00        0.99       0.99
- vtowfk(ssdiag)                  613.370  10.9       616.480  10.8             -1      -1.00        0.99       0.99
- fourwf%(pot)                    499.728   8.8       503.181   8.8         747945      -1.00        0.99       0.99
- sigma/=fourdp                   319.589   5.7       325.172   5.7              1      -1.00        0.98       0.98
- nonlop(apply)                   147.430   2.6       148.514   2.6         747945      -1.00        0.99       0.99
- newkpt(excl. rwwf   )            29.078   0.5        29.275   0.5             -1      -1.00        0.99       0.99
- getghc-other                      9.519   0.2         8.609   0.2             -1      -1.00        1.11       1.11
- vtowfk(contrib)                   6.898   0.1         6.938   0.1            176      -1.00        0.99       0.99
- fourwf%(den)                      0.658   0.0         0.663   0.0           1920      -1.00        0.99       0.99
- xc:pot/=fourdp                    0.379   0.0         0.383   0.0             15      -1.00        0.99       0.99
- wfd_read_wfk                      0.321   0.0         1.881   0.0              2      -1.00        0.17       0.17
- pspini                            0.211   0.0         0.951   0.0              4      -1.00        0.22       0.22
- timing timab                      0.142   0.0         0.142   0.0             12      -1.00        1.00       1.00
- invars2                           0.100   0.0         0.100   0.0              4      -1.00        1.00       1.00
- fourdp                            0.087   0.0         0.098   0.0            184      -1.00        0.89       0.89
- nonlop(forstr)                    0.082   0.0         0.082   0.0            192      -1.00        1.00       1.00
- mkffnl                            0.076   0.0         0.078   0.0            208      -1.00        0.98       0.98
- ewald                             0.058   0.0         0.060   0.0              4      -1.00        0.98       0.98
- mkcore                            0.054   0.0         0.054   0.0              6      -1.00        1.00       1.00
- abinit(2)                         0.040   0.0         1.541   0.0              1      -1.00        0.03       0.03
- stress                            0.026   0.0         0.027   0.0              1      -1.00        0.97       0.97
- symrhg(no FFT)                    0.021   0.0         0.021   0.0             12      -1.00        0.99       0.99
- forces                            0.015   0.0         0.015   0.0              1      -1.00        1.00       1.00
- ewald2 (+vdw_dftd)                0.010   0.0         0.010   0.0              1      -1.00        1.01       1.01
- others (105)                      0.011   0.0         0.035   0.0             -1      -1.00        0.32       0.32
-<END_TIMER>

- subtotal                       3574.881  63.3      3606.429  63.3                                  0.99       0.99

 Partitioning of abinit
- abinit                         5647.225 100.0      5693.161 100.0              1                   0.99       0.99
 
- abinit(1)                         0.011   0.0         1.520   0.0              1                   0.01       0.01
- abinit(2)                         0.040   0.0         1.541   0.0              1                   0.03       0.03
- abinit(4)                         0.259   0.0         5.046   0.1              1                   0.05       0.05
- driver                         5646.724 100.0      5685.435  99.9              1                   0.99       0.99
- abinit(6)                         0.080   0.0         1.197   0.0              1                   0.07       0.07

- subtotal                       5647.225 100.0      5693.161 100.0                                  0.99       0.99

 Partitioning of driver
- driver                         5646.724 100.0      5685.435  99.9              1                   0.99       0.99
 
- gstateimg                      3482.534  61.7      3506.767  61.6              2                   0.99       0.99
- screening                      1844.598  32.7      1853.483  32.6              1                   1.00       1.00
- sigma                           319.590   5.7       325.172   5.7              1                   0.98       0.98

- subtotal                       5646.724 100.0      5685.435  99.9                                  0.99       0.99

 Partitioning of gstateimg+gstate
- gstateimg                      3482.534  61.7      3506.767  61.6              2                   0.99       0.99
 
- gstate->kpgsph                   29.085   0.5        29.304   0.5              4                   0.99       0.99
- gstate(...scfcv)               3452.905  61.1      3475.135  61.0              2                   0.99       0.99
- gstate  (3)                       0.320   0.0         1.328   0.0              2                   0.24       0.24

- subtotal                       3482.534  61.7      3506.767  61.6                                  0.99       0.99

 Partitioning of scfcv_core
- scfcv_core                     3452.905  61.1      3475.135  61.0              2                   0.99       0.99
 
- scfcv_core(vtorho(f))          3452.282  61.1      3474.139  61.0             11                   0.99       0.99

- subtotal                       3452.905  61.1      3475.135  61.0                                  0.99       0.99

 Partitioning of rhotov
- rhotov                            0.284   0.0         0.286   0.0             10                   0.99       0.99
 

- subtotal                          0.284   0.0         0.286   0.0                                  0.99       0.99

 Partitioning of vtorho
- vtorho                         3452.282  61.1      3474.139  61.0             11                   0.99       0.99
 
- vtowfk                         3452.155  61.1      3473.710  61.0            176                   0.99       0.99

- subtotal                       3452.282  61.1      3474.139  61.0                                  0.99       0.99

 Partitioning of vtowfk
- vtowfk                         3452.155  61.1      3473.710  61.0            176                   0.99       0.99
 
- cgwf                           2831.228  50.1      2849.628  50.1            528                   0.99       0.99
- vtowfk(subdiago)                196.362   3.5       197.332   3.5            528                   1.00       1.00
- vtowfk(pw_orthon)               415.438   7.4       417.565   7.3            528                   0.99       0.99
- vtowfk(2)                         1.570   0.0         1.583   0.0             -1                   0.99       0.99
- vtowfk(nonlocalpart)              6.581   0.1         6.619   0.1            176                   0.99       0.99

- subtotal                       3452.155  61.1      3473.710  61.0                                  0.99       0.99

 Partitioning of cgwf
- cgwf                           2831.228  50.1      2849.628  50.1            528                   0.99       0.99
 
- getghc%cgwf                     656.677  11.6       660.304  11.6         747945                   0.99       0.99
- cgwf-O(npw)                     227.574   4.0       227.205   4.0             -1                   1.00       1.00
- projbd%cgwf                    1946.976  34.5      1962.119  34.5         955218                   0.99       0.99

- subtotal                       2831.228  50.1      2849.628  50.1                                  0.99       0.99

 Partitioning of getghc
- getghc                          656.677  11.6       660.304  11.6         747945                   0.99       0.99
 
- fourwf%getghc                   499.728   8.8       503.181   8.8         747945                   0.99       0.99
- nonlop%getghc                   147.430   2.6       148.514   2.6         747945                   0.99       0.99
- getghc-other                      9.519   0.2         8.609   0.2             -1                   1.11       1.11

- subtotal                        656.677  11.6       660.304  11.6                                  0.99       0.99

 Partitioning of fourwf (upwards partitioning)
- fourwf                          500.386   8.9       503.844   8.8         749865                   0.99       0.99
 
- fourwf%getghc                   499.728   8.8       503.181   8.8         747945                   0.99       0.99

- subtotal                        500.386   8.9       503.844   8.8                                  0.99       0.99

 Partitioning of screening
- screening                      1844.598  32.7      1853.483  32.6              1                   1.00       1.00
 
- screening(cchi0q0)               73.621   1.3        73.903   1.3              1                   1.00       1.00
- screening(cchi0)               1770.047  31.3      1777.145  31.2             15                   1.00       1.00
- screening(wrt scr files)          0.026   0.0         1.215   0.0             16                   0.02       0.02

- subtotal                       1844.562  32.7      1853.441  32.6                                  1.00       1.00

 Partitioning of sigma
- sigma                           319.590   5.7       325.172   5.7              1                   0.98       0.98
 
- setup_sigma                       0.254   0.0         1.267   0.0              1                   0.20       0.20
- sigma(rdkss)                      0.154   0.0         1.594   0.0              1                   0.10       0.10
- sigma(calc_sigc_me)             317.688   5.6       318.926   5.6              3                   1.00       1.00

- subtotal                        319.490   5.7       324.202   5.7                                  0.99       0.99

 Partitioning of calc_sigc_me
- calc_sigc_me                    317.688   5.6       318.926   5.6              3                   1.00       1.00
 
- calc_sigc_me(loop)              317.616   5.6       318.831   5.6             78                   1.00       1.00

- subtotal                        317.687   5.6       318.925   5.6                                  1.00       1.00

 Partitioning of inwffil
- inwffil                          29.078   0.5        29.294   0.5              2                   0.99       0.99
 
- inwffil(call newkpt)             29.078   0.5        29.275   0.5              2                   0.99       0.99

- subtotal                         29.078   0.5        29.294   0.5                                  0.99       0.99

 Partitioning of newkpt
- newkpt                           29.078   0.5        29.275   0.5              2                   0.99       0.99
 
- newkpt(call wfconv)              29.076   0.5        29.273   0.5             32                   0.99       0.99

- subtotal                         29.078   0.5        29.275   0.5                                  0.99       0.99

 Partitioning of newvtr
- newvtr                            0.018   0.0         0.022   0.0              9                   0.82       0.82
 

- subtotal                          0.018   0.0         0.022   0.0                                  0.82       0.82

 Partitioning of  fourdp (upwards partitioning)
- fourdp                            0.087   0.0         0.098   0.0            184                   0.89       0.89
 

- subtotal                          0.087   0.0         0.098   0.0                                  0.89       0.89

 Partitioning of afterscfloop
- afterscfloop                      0.135   0.0         0.137   0.0              2                   0.99       0.99
 

- subtotal                          0.135   0.0         0.137   0.0                                  0.99       0.99

 Partitioning of forstr
- forstr                            0.135   0.0         0.137   0.0              1                   0.99       0.99
 

- subtotal                          0.135   0.0         0.137   0.0                                  0.99       0.99

 Partitioning of forstrnps
- forstrnps                         0.094   0.0         0.094   0.0              1                   0.99       0.99
 

- subtotal                          0.094   0.0         0.094   0.0                                  0.99       0.99

 Partitioning of outscfcv
- outscfcv                          0.073   0.0         0.425   0.0              2                   0.17       0.17
 

- subtotal                          0.050   0.0         0.382   0.0                                  0.13       0.13
-
-Synchronisation (=leave_test) and MPI calls 
- communic.MPI                     63.820   1.1        61.962   1.1       74021292                   1.03       1.03
-
- forstrnps:synchr                  0.000   0.0         0.000   0.0              2                   0.00       0.00
- subtotal                          0.000   0.0         0.000   0.0                                  0.00       0.00

 Additional information
- timana(1)                         0.000   0.0         0.000   0.0              1                   0.00       0.00
- total timab                     127.611   2.3       127.753   2.2       77668430                   1.00       1.00
- fourwf                          500.386   8.9       503.844   8.8         749865                   0.99       0.99
- mklocl(2)                         0.002   0.0         0.002   0.0              1                   1.06       1.06
- nonlop(forstr)                    0.082   0.0         0.082   0.0            192                   1.00       1.00
- nonlop(total)                   147.512   2.6       148.596   2.6         748137                   0.99       0.99
- xc:fourdp                         0.050   0.0         0.048   0.0            120                   1.03       1.03
- calc_sigc_me(1)           219204946.334**************************          39936                   0.00       0.00
- calc_sigc_me(rho_tw_g)           14.558   0.3        14.635   0.3          39936                   0.99       0.99
- calc_sigc_me(2)                 300.812   5.3       302.046   5.3         137216                   1.00       1.00
- calc_sigc_me(sigma_me)            0.432   0.0         0.417   0.0         137216                   1.04       1.04
- cchi0                          1770.045  31.3      1777.142  31.2             15                   1.00       1.00

 timana : in multi dataset mode, the more detailed analysis is not done.

================================================================================

 Suggested references for the acknowledgment of ABINIT usage.

 The users of ABINIT have little formal obligations with respect to the ABINIT group
 (those specified in the GNU General Public License, http://www.gnu.org/copyleft/gpl.txt).
 However, it is common practice in the scientific literature,
 to acknowledge the efforts of people that have made the research possible.
 In this spirit, please find below suggested citations of work written by ABINIT developers,
 corresponding to implementations inside of ABINIT that you have used in the present run.
 Note also that it will be of great value to readers of publications presenting these results,
 to read papers enabling them to understand the theoretical formalism and details
 of the ABINIT implementation.
 For information on why they are suggested, see also https://docs.abinit.org/theory/acknowledgments.
-
- [1] Libxc: A library of exchange and correlation functionals for density functional theory.
- M.A.L. Marques, M.J.T. Oliveira, T. Burnus, Computer Physics Communications 183, 2227 (2012).
- Comment: to be cited when LibXC is used (negative value of ixc)
- Strong suggestion to cite this paper.
- DOI and bibtex: see https://docs.abinit.org/theory/bibliography/#marques2012
-
- [2] The Abinit project: Impact, environment and recent developments.
- Computer Phys. Comm. 248, 107042 (2020).
- X.Gonze, B. Amadon, G. Antonius, F.Arnardi, L.Baguet, J.-M.Beuken,
- J.Bieder, F.Bottin, J.Bouchet, E.Bousquet, N.Brouwer, F.Bruneval,
- G.Brunin, T.Cavignac, J.-B. Charraud, Wei Chen, M.Cote, S.Cottenier,
- J.Denier, G.Geneste, Ph.Ghosez, M.Giantomassi, Y.Gillet, O.Gingras,
- D.R.Hamann, G.Hautier, Xu He, N.Helbig, N.Holzwarth, Y.Jia, F.Jollet,
- W.Lafargue-Dit-Hauret, K.Lejaeghere, M.A.L.Marques, A.Martin, C.Martins,
- H.P.C. Miranda, F.Naccarato, K. Persson, G.Petretto, V.Planes, Y.Pouillon,
- S.Prokhorenko, F.Ricci, G.-M.Rignanese, A.H.Romero, M.M.Schmitt, M.Torrent,
- M.J.van Setten, B.Van Troeye, M.J.Verstraete, G.Zerah and J.W.Zwanzig
- Comment: the fifth generic paper describing the ABINIT project.
- Note that a version of this paper, that is not formatted for Computer Phys. Comm. 
- is available at https://www.abinit.org/sites/default/files/ABINIT20.pdf .
- The licence allows the authors to put it on the Web.
- DOI and bibtex: see https://docs.abinit.org/theory/bibliography/#gonze2020
-
- [3] Optimized norm-conserving Vanderbilt pseudopotentials.
- D.R. Hamann, Phys. Rev. B 88, 085117 (2013).
- Comment: Some pseudopotential generated using the ONCVPSP code were used.
- DOI and bibtex: see https://docs.abinit.org/theory/bibliography/#hamann2013
-
- [4] ABINIT: Overview, and focus on selected capabilities
- J. Chem. Phys. 152, 124102 (2020).
- A. Romero, D.C. Allan, B. Amadon, G. Antonius, T. Applencourt, L.Baguet,
- J.Bieder, F.Bottin, J.Bouchet, E.Bousquet, F.Bruneval,
- G.Brunin, D.Caliste, M.Cote,
- J.Denier, C. Dreyer, Ph.Ghosez, M.Giantomassi, Y.Gillet, O.Gingras,
- D.R.Hamann, G.Hautier, F.Jollet, G. Jomard,
- A.Martin, 
- H.P.C. Miranda, F.Naccarato, G.Petretto, N.A. Pike, V.Planes,
- S.Prokhorenko, T. Rangel, F.Ricci, G.-M.Rignanese, M.Royo, M.Stengel, M.Torrent,
- M.J.van Setten, B.Van Troeye, M.J.Verstraete, J.Wiktor, J.W.Zwanziger, and X.Gonze.
- Comment: a global overview of ABINIT, with focus on selected capabilities .
- Note that a version of this paper, that is not formatted for J. Chem. Phys 
- is available at https://www.abinit.org/sites/default/files/ABINIT20_JPC.pdf .
- The licence allows the authors to put it on the Web.
- DOI and bibtex: see https://docs.abinit.org/theory/bibliography/#romero2020
-
- [5] Recent developments in the ABINIT software package.
- Computer Phys. Comm. 205, 106 (2016).
- X.Gonze, F.Jollet, F.Abreu Araujo, D.Adams, B.Amadon, T.Applencourt,
- C.Audouze, J.-M.Beuken, J.Bieder, A.Bokhanchuk, E.Bousquet, F.Bruneval
- D.Caliste, M.Cote, F.Dahm, F.Da Pieve, M.Delaveau, M.Di Gennaro,
- B.Dorado, C.Espejo, G.Geneste, L.Genovese, A.Gerossier, M.Giantomassi,
- Y.Gillet, D.R.Hamann, L.He, G.Jomard, J.Laflamme Janssen, S.Le Roux,
- A.Levitt, A.Lherbier, F.Liu, I.Lukacevic, A.Martin, C.Martins,
- M.J.T.Oliveira, S.Ponce, Y.Pouillon, T.Rangel, G.-M.Rignanese,
- A.H.Romero, B.Rousseau, O.Rubel, A.A.Shukri, M.Stankovski, M.Torrent,
- M.J.Van Setten, B.Van Troeye, M.J.Verstraete, D.Waroquier, J.Wiktor,
- B.Xu, A.Zhou, J.W.Zwanziger.
- Comment: the fourth generic paper describing the ABINIT project.
- Note that a version of this paper, that is not formatted for Computer Phys. Comm. 
- is available at https://www.abinit.org/sites/default/files/ABINIT16.pdf .
- The licence allows the authors to put it on the Web.
- DOI and bibtex: see https://docs.abinit.org/theory/bibliography/#gonze2016
-
- Proc.   0 individual time (sec): cpu=       5647.2  wall=       5693.2
 
================================================================================
 
 Calculation completed.
.Delivered   1 WARNINGs and   9 COMMENTs to log file.
+Overall time at end (sec) : cpu=       5647.2  wall=       5693.2
