                                                                                     
                             WELCOME TO ABACUS                                       
                                                                                     
               'Atomic-orbital Based Ab-initio Computation at UStc'                  
                                                                                     
                     Website: http://abacus.ustc.edu.cn/                             
                                                                                     
    Version: Parallel, in development
    Processor Number is 8
    Start Time is Tue Jul  5 15:52:04 2022
                                                                                     
 ------------------------------------------------------------------------------------

 READING GENERAL INFORMATION
                           global_out_dir = OUT.ABACUS/
                           global_in_card = INPUT
                               pseudo_dir = 
                              orbital_dir = 
                              pseudo_type = auto
                                    DRANK = 1
                                    DSIZE = 8
                                   DCOLOR = 1
                                    GRANK = 1
                                    GSIZE = 1




 >>>>>>>>>>>>>>>>>>>>>>>>>>>>>>>>>>>>>>>>>>>>>>>>>>>>>>>>>>>>>>>>>>>>>>
 |                                                                    |
 | Reading atom information in unitcell:                              |
 | From the input file and the structure file we know the number of   |
 | different elments in this unitcell, then we list the detail        |
 | information for each element, especially the zeta and polar atomic |
 | orbital number for each element. The total atom number is counted. |
 | We calculate the nearest atom distance for each atom and show the  |
 | Cartesian and Direct coordinates for each atom. We list the file   |
 | address for atomic orbitals. The volume and the lattice vectors    |
 | in real and reciprocal space is also shown.                        |
 |                                                                    |
 <<<<<<<<<<<<<<<<<<<<<<<<<<<<<<<<<<<<<<<<<<<<<<<<<<<<<<<<<<<<<<<<<<<<<<




 READING UNITCELL INFORMATION
                                    ntype = 1
                 atom label for species 1 = Si
                  lattice constant (Bohr) = 10.2
              lattice constant (Angstrom) = 5.39761

 READING ATOM TYPE 1
                               atom label = Si
                      L=0, number of zeta = 2
                      L=1, number of zeta = 2
                      L=2, number of zeta = 1
             number of atom for this type = 2
                      start magnetization = FALSE
                      start magnetization = FALSE

                        TOTAL ATOM NUMBER = 2

 CARTESIAN COORDINATES ( UNIT = 10.2 Bohr ).
         atom                   x                   y                   z                 mag                  vx                  vy                  vz
     tauc_Si1                   0                   0                   0                   0                   0                   0                   0
     tauc_Si2                0.25                0.25                0.25                   0                   0                   0                   0


 READING ORBITAL FILE NAMES FOR LCAO
 orbital file: ./Si_lda_8.0au_50Ry_2s2p1d

                          Volume (Bohr^3) = 265.302
                             Volume (A^3) = 39.3136533177

 Lattice vectors: (Cartesian coordinate: in unit of a_0)
                 +0.5                +0.5                  +0
                 +0.5                  +0                +0.5
                   +0                +0.5                +0.5
 Reciprocal vectors: (Cartesian coordinate: in unit of 2 pi/a_0)
                   +1                  +1                  -1
                   +1                  -1                  +1
                   -1                  +1                  +1




 >>>>>>>>>>>>>>>>>>>>>>>>>>>>>>>>>>>>>>>>>>>>>>>>>>>>>>>>>>>>>>>>>>>>>>
 |                                                                    |
 | Reading pseudopotentials files:                                    |
 | The pseudopotential file is in UPF format. The 'NC' indicates that |
 | the type of pseudopotential is 'norm conserving'. Functional of    |
 | exchange and correlation is decided by 4 given parameters in UPF   |
 | file.  We also read in the 'core correction' if there exists.      |
 | Also we can read the valence electrons number and the maximal      |
 | angular momentum used in this pseudopotential. We also read in the |
 | trail wave function, trail atomic density and local-pseudopotential|
 | on logrithmic grid. The non-local pseudopotential projector is also|
 | read in if there is any.                                           |
 |                                                                    |
 <<<<<<<<<<<<<<<<<<<<<<<<<<<<<<<<<<<<<<<<<<<<<<<<<<<<<<<<<<<<<<<<<<<<<<




                PAO radial cut off (Bohr) = 15

 Read in pseudopotential file is Si.pz-vbc.UPF
                     pseudopotential type = NC
          exchange-correlation functional = PZ
                 nonlocal core correction = 0
                        valence electrons = 4
                                     lmax = 1
                           number of zeta = 2
                     number of projectors = 2
                           L of projector = 0
                           L of projector = 1
     initial pseudo atomic orbital number = 8
                                   NLOCAL = 26




 >>>>>>>>>>>>>>>>>>>>>>>>>>>>>>>>>>>>>>>>>>>>>>>>>>>>>>>>>>>>>>>>>>>>>>
 |                                                                    |
 | Setup plane waves of charge/potential:                             |
 | Use the energy cutoff and the lattice vectors to generate the      |
 | dimensions of FFT grid. The number of FFT grid on each processor   |
 | is 'nrxx'. The number of plane wave basis in reciprocal space is   |
 | different for charege/potential and wave functions. We also set    |
 | the 'sticks' for the parallel of FFT. The number of plane waves    |
 | is 'npw' in each processor.                                        |
 <<<<<<<<<<<<<<<<<<<<<<<<<<<<<<<<<<<<<<<<<<<<<<<<<<<<<<<<<<<<<<<<<<<<<<





 SETUP THE PLANE WAVE BASIS
 energy cutoff for charge/potential (unit:Ry) = 200
          [fft grid for charge/potential] = 36, 36, 36
                      [fft grid division] = 2, 2, 2
      [big fft grid for charge/potential] = 18, 18, 18
                                     nbxx = 972
                                     nrxx = 7776

 SETUP PLANE WAVES FOR CHARGE/POTENTIAL
                    number of plane waves = 12627
                         number of sticks = 721

 PARALLEL PW FOR CHARGE/POTENTIAL
     PROC   COLUMNS(POT)             PW
        1             90           1579
        2             90           1579
        3             90           1578
        4             90           1578
        5             91           1579
        6             90           1578
        7             90           1578
        8             90           1578
 --------------- sum -------------------
        8            721          12627
                            number of |g| = 176
                                  max |g| = 524
                                  min |g| = 3

 SETUP THE ELECTRONS NUMBER
            electron number of element Si = 4
      total electron number of element Si = 8
                           occupied bands = 4
                                   NLOCAL = 26
                                   NBANDS = 8
                                   NBANDS = 8
 DONE : SETUP UNITCELL Time : 0.0370259284973 (SEC)





 >>>>>>>>>>>>>>>>>>>>>>>>>>>>>>>>>>>>>>>>>>>>>>>>>>>>>>>>>>>>>>>>>>>>>>
 |                                                                    |
 | Setup K-points                                                     |
 | We setup the k-points according to input parameters.               |
 | The reduced k-points are set according to symmetry operations.     |
 | We treat the spin as another set of k-points.                      |
 |                                                                    |
 <<<<<<<<<<<<<<<<<<<<<<<<<<<<<<<<<<<<<<<<<<<<<<<<<<<<<<<<<<<<<<<<<<<<<<





 SETUP K-POINTS
                                    nspin = 1
                   Input type of k points = Monkhorst-Pack(Gamma)
is_mp : 1
                                   nkstot = 1728
                               nkstot_ibz = 868
      IBZ             DirectX             DirectY             DirectZ              Weight    ibz2bz
        1                   0                   0                   0   0.000578703703704         0
        2      0.916666666667                   0                   0    0.00115740740741         1
        3      0.833333333333                   0                   0    0.00115740740741         2
        4                0.75                   0                   0    0.00115740740741         3
        5      0.666666666667                   0                   0    0.00115740740741         4
        6      0.583333333333                   0                   0    0.00115740740741         5
        7                 0.5                   0                   0   0.000578703703704         6
        8                   0      0.916666666667                   0    0.00115740740741        12
        9      0.916666666667      0.916666666667                   0    0.00115740740741        13
       10      0.833333333333      0.916666666667                   0    0.00115740740741        14
       11                0.75      0.916666666667                   0    0.00115740740741        15
       12      0.666666666667      0.916666666667                   0    0.00115740740741        16
       13      0.583333333333      0.916666666667                   0    0.00115740740741        17
       14                 0.5      0.916666666667                   0    0.00115740740741        18
       15      0.416666666667      0.916666666667                   0    0.00115740740741        19
       16      0.333333333333      0.916666666667                   0    0.00115740740741        20
       17                0.25      0.916666666667                   0    0.00115740740741        21
       18      0.166666666667      0.916666666667                   0    0.00115740740741        22
       19     0.0833333333333      0.916666666667                   0    0.00115740740741        23
       20                   0      0.833333333333                   0    0.00115740740741        24
       21      0.916666666667      0.833333333333                   0    0.00115740740741        25
       22      0.833333333333      0.833333333333                   0    0.00115740740741        26
       23                0.75      0.833333333333                   0    0.00115740740741        27
       24      0.666666666667      0.833333333333                   0    0.00115740740741        28
       25      0.583333333333      0.833333333333                   0    0.00115740740741        29
       26                 0.5      0.833333333333                   0    0.00115740740741        30
       27      0.416666666667      0.833333333333                   0    0.00115740740741        31
       28      0.333333333333      0.833333333333                   0    0.00115740740741        32
       29                0.25      0.833333333333                   0    0.00115740740741        33
       30      0.166666666667      0.833333333333                   0    0.00115740740741        34
       31     0.0833333333333      0.833333333333                   0    0.00115740740741        35
       32                   0                0.75                   0    0.00115740740741        36
       33      0.916666666667                0.75                   0    0.00115740740741        37
       34      0.833333333333                0.75                   0    0.00115740740741        38
       35                0.75                0.75                   0    0.00115740740741        39
       36      0.666666666667                0.75                   0    0.00115740740741        40
       37      0.583333333333                0.75                   0    0.00115740740741        41
       38                 0.5                0.75                   0    0.00115740740741        42
       39      0.416666666667                0.75                   0    0.00115740740741        43
       40      0.333333333333                0.75                   0    0.00115740740741        44
       41                0.25                0.75                   0    0.00115740740741        45
       42      0.166666666667                0.75                   0    0.00115740740741        46
       43     0.0833333333333                0.75                   0    0.00115740740741        47
       44                   0      0.666666666667                   0    0.00115740740741        48
       45      0.916666666667      0.666666666667                   0    0.00115740740741        49
       46      0.833333333333      0.666666666667                   0    0.00115740740741        50
       47                0.75      0.666666666667                   0    0.00115740740741        51
       48      0.666666666667      0.666666666667                   0    0.00115740740741        52
       49      0.583333333333      0.666666666667                   0    0.00115740740741        53
       50                 0.5      0.666666666667                   0    0.00115740740741        54
       51      0.416666666667      0.666666666667                   0    0.00115740740741        55
       52      0.333333333333      0.666666666667                   0    0.00115740740741        56
       53                0.25      0.666666666667                   0    0.00115740740741        57
       54      0.166666666667      0.666666666667                   0    0.00115740740741        58
       55     0.0833333333333      0.666666666667                   0    0.00115740740741        59
       56                   0      0.583333333333                   0    0.00115740740741        60
       57      0.916666666667      0.583333333333                   0    0.00115740740741        61
       58      0.833333333333      0.583333333333                   0    0.00115740740741        62
       59                0.75      0.583333333333                   0    0.00115740740741        63
       60      0.666666666667      0.583333333333                   0    0.00115740740741        64
       61      0.583333333333      0.583333333333                   0    0.00115740740741        65
       62                 0.5      0.583333333333                   0    0.00115740740741        66
       63      0.416666666667      0.583333333333                   0    0.00115740740741        67
       64      0.333333333333      0.583333333333                   0    0.00115740740741        68
       65                0.25      0.583333333333                   0    0.00115740740741        69
       66      0.166666666667      0.583333333333                   0    0.00115740740741        70
       67     0.0833333333333      0.583333333333                   0    0.00115740740741        71
       68                   0                 0.5                   0   0.000578703703704        72
       69      0.916666666667                 0.5                   0    0.00115740740741        73
       70      0.833333333333                 0.5                   0    0.00115740740741        74
       71                0.75                 0.5                   0    0.00115740740741        75
       72      0.666666666667                 0.5                   0    0.00115740740741        76
       73      0.583333333333                 0.5                   0    0.00115740740741        77
       74                 0.5                 0.5                   0   0.000578703703704        78
       75                   0                   0      0.916666666667    0.00115740740741       144
       76      0.916666666667                   0      0.916666666667    0.00115740740741       145
       77      0.833333333333                   0      0.916666666667    0.00115740740741       146
       78                0.75                   0      0.916666666667    0.00115740740741       147
       79      0.666666666667                   0      0.916666666667    0.00115740740741       148
       80      0.583333333333                   0      0.916666666667    0.00115740740741       149
       81                 0.5                   0      0.916666666667    0.00115740740741       150
       82      0.416666666667                   0      0.916666666667    0.00115740740741       151
       83      0.333333333333                   0      0.916666666667    0.00115740740741       152
       84                0.25                   0      0.916666666667    0.00115740740741       153
       85      0.166666666667                   0      0.916666666667    0.00115740740741       154
       86     0.0833333333333                   0      0.916666666667    0.00115740740741       155
       87                   0      0.916666666667      0.916666666667    0.00115740740741       156
       88      0.916666666667      0.916666666667      0.916666666667    0.00115740740741       157
       89      0.833333333333      0.916666666667      0.916666666667    0.00115740740741       158
       90                0.75      0.916666666667      0.916666666667    0.00115740740741       159
       91      0.666666666667      0.916666666667      0.916666666667    0.00115740740741       160
       92      0.583333333333      0.916666666667      0.916666666667    0.00115740740741       161
       93                 0.5      0.916666666667      0.916666666667    0.00115740740741       162
       94      0.416666666667      0.916666666667      0.916666666667    0.00115740740741       163
       95      0.333333333333      0.916666666667      0.916666666667    0.00115740740741       164
       96                0.25      0.916666666667      0.916666666667    0.00115740740741       165
       97      0.166666666667      0.916666666667      0.916666666667    0.00115740740741       166
       98     0.0833333333333      0.916666666667      0.916666666667    0.00115740740741       167
       99                   0      0.833333333333      0.916666666667    0.00115740740741       168
      100      0.916666666667      0.833333333333      0.916666666667    0.00115740740741       169
      101      0.833333333333      0.833333333333      0.916666666667    0.00115740740741       170
      102                0.75      0.833333333333      0.916666666667    0.00115740740741       171
      103      0.666666666667      0.833333333333      0.916666666667    0.00115740740741       172
      104      0.583333333333      0.833333333333      0.916666666667    0.00115740740741       173
      105                 0.5      0.833333333333      0.916666666667    0.00115740740741       174
      106      0.416666666667      0.833333333333      0.916666666667    0.00115740740741       175
      107      0.333333333333      0.833333333333      0.916666666667    0.00115740740741       176
      108                0.25      0.833333333333      0.916666666667    0.00115740740741       177
      109      0.166666666667      0.833333333333      0.916666666667    0.00115740740741       178
      110     0.0833333333333      0.833333333333      0.916666666667    0.00115740740741       179
      111                   0                0.75      0.916666666667    0.00115740740741       180
      112      0.916666666667                0.75      0.916666666667    0.00115740740741       181
      113      0.833333333333                0.75      0.916666666667    0.00115740740741       182
      114                0.75                0.75      0.916666666667    0.00115740740741       183
      115      0.666666666667                0.75      0.916666666667    0.00115740740741       184
      116      0.583333333333                0.75      0.916666666667    0.00115740740741       185
      117                 0.5                0.75      0.916666666667    0.00115740740741       186
      118      0.416666666667                0.75      0.916666666667    0.00115740740741       187
      119      0.333333333333                0.75      0.916666666667    0.00115740740741       188
      120                0.25                0.75      0.916666666667    0.00115740740741       189
      121      0.166666666667                0.75      0.916666666667    0.00115740740741       190
      122     0.0833333333333                0.75      0.916666666667    0.00115740740741       191
      123                   0      0.666666666667      0.916666666667    0.00115740740741       192
      124      0.916666666667      0.666666666667      0.916666666667    0.00115740740741       193
      125      0.833333333333      0.666666666667      0.916666666667    0.00115740740741       194
      126                0.75      0.666666666667      0.916666666667    0.00115740740741       195
      127      0.666666666667      0.666666666667      0.916666666667    0.00115740740741       196
      128      0.583333333333      0.666666666667      0.916666666667    0.00115740740741       197
      129                 0.5      0.666666666667      0.916666666667    0.00115740740741       198
      130      0.416666666667      0.666666666667      0.916666666667    0.00115740740741       199
      131      0.333333333333      0.666666666667      0.916666666667    0.00115740740741       200
      132                0.25      0.666666666667      0.916666666667    0.00115740740741       201
      133      0.166666666667      0.666666666667      0.916666666667    0.00115740740741       202
      134     0.0833333333333      0.666666666667      0.916666666667    0.00115740740741       203
      135                   0      0.583333333333      0.916666666667    0.00115740740741       204
      136      0.916666666667      0.583333333333      0.916666666667    0.00115740740741       205
      137      0.833333333333      0.583333333333      0.916666666667    0.00115740740741       206
      138                0.75      0.583333333333      0.916666666667    0.00115740740741       207
      139      0.666666666667      0.583333333333      0.916666666667    0.00115740740741       208
      140      0.583333333333      0.583333333333      0.916666666667    0.00115740740741       209
      141                 0.5      0.583333333333      0.916666666667    0.00115740740741       210
      142      0.416666666667      0.583333333333      0.916666666667    0.00115740740741       211
      143      0.333333333333      0.583333333333      0.916666666667    0.00115740740741       212
      144                0.25      0.583333333333      0.916666666667    0.00115740740741       213
      145      0.166666666667      0.583333333333      0.916666666667    0.00115740740741       214
      146     0.0833333333333      0.583333333333      0.916666666667    0.00115740740741       215
      147                   0                 0.5      0.916666666667    0.00115740740741       216
      148      0.916666666667                 0.5      0.916666666667    0.00115740740741       217
      149      0.833333333333                 0.5      0.916666666667    0.00115740740741       218
      150                0.75                 0.5      0.916666666667    0.00115740740741       219
      151      0.666666666667                 0.5      0.916666666667    0.00115740740741       220
      152      0.583333333333                 0.5      0.916666666667    0.00115740740741       221
      153                 0.5                 0.5      0.916666666667    0.00115740740741       222
      154      0.416666666667                 0.5      0.916666666667    0.00115740740741       223
      155      0.333333333333                 0.5      0.916666666667    0.00115740740741       224
      156                0.25                 0.5      0.916666666667    0.00115740740741       225
      157      0.166666666667                 0.5      0.916666666667    0.00115740740741       226
      158     0.0833333333333                 0.5      0.916666666667    0.00115740740741       227
      159                   0      0.416666666667      0.916666666667    0.00115740740741       228
      160      0.916666666667      0.416666666667      0.916666666667    0.00115740740741       229
      161      0.833333333333      0.416666666667      0.916666666667    0.00115740740741       230
      162                0.75      0.416666666667      0.916666666667    0.00115740740741       231
      163      0.666666666667      0.416666666667      0.916666666667    0.00115740740741       232
      164      0.583333333333      0.416666666667      0.916666666667    0.00115740740741       233
      165                 0.5      0.416666666667      0.916666666667    0.00115740740741       234
      166      0.416666666667      0.416666666667      0.916666666667    0.00115740740741       235
      167      0.333333333333      0.416666666667      0.916666666667    0.00115740740741       236
      168                0.25      0.416666666667      0.916666666667    0.00115740740741       237
      169      0.166666666667      0.416666666667      0.916666666667    0.00115740740741       238
      170     0.0833333333333      0.416666666667      0.916666666667    0.00115740740741       239
      171                   0      0.333333333333      0.916666666667    0.00115740740741       240
      172      0.916666666667      0.333333333333      0.916666666667    0.00115740740741       241
      173      0.833333333333      0.333333333333      0.916666666667    0.00115740740741       242
      174                0.75      0.333333333333      0.916666666667    0.00115740740741       243
      175      0.666666666667      0.333333333333      0.916666666667    0.00115740740741       244
      176      0.583333333333      0.333333333333      0.916666666667    0.00115740740741       245
      177                 0.5      0.333333333333      0.916666666667    0.00115740740741       246
      178      0.416666666667      0.333333333333      0.916666666667    0.00115740740741       247
      179      0.333333333333      0.333333333333      0.916666666667    0.00115740740741       248
      180                0.25      0.333333333333      0.916666666667    0.00115740740741       249
      181      0.166666666667      0.333333333333      0.916666666667    0.00115740740741       250
      182     0.0833333333333      0.333333333333      0.916666666667    0.00115740740741       251
      183                   0                0.25      0.916666666667    0.00115740740741       252
      184      0.916666666667                0.25      0.916666666667    0.00115740740741       253
      185      0.833333333333                0.25      0.916666666667    0.00115740740741       254
      186                0.75                0.25      0.916666666667    0.00115740740741       255
      187      0.666666666667                0.25      0.916666666667    0.00115740740741       256
      188      0.583333333333                0.25      0.916666666667    0.00115740740741       257
      189                 0.5                0.25      0.916666666667    0.00115740740741       258
      190      0.416666666667                0.25      0.916666666667    0.00115740740741       259
      191      0.333333333333                0.25      0.916666666667    0.00115740740741       260
      192                0.25                0.25      0.916666666667    0.00115740740741       261
      193      0.166666666667                0.25      0.916666666667    0.00115740740741       262
      194     0.0833333333333                0.25      0.916666666667    0.00115740740741       263
      195                   0      0.166666666667      0.916666666667    0.00115740740741       264
      196      0.916666666667      0.166666666667      0.916666666667    0.00115740740741       265
      197      0.833333333333      0.166666666667      0.916666666667    0.00115740740741       266
      198                0.75      0.166666666667      0.916666666667    0.00115740740741       267
      199      0.666666666667      0.166666666667      0.916666666667    0.00115740740741       268
      200      0.583333333333      0.166666666667      0.916666666667    0.00115740740741       269
      201                 0.5      0.166666666667      0.916666666667    0.00115740740741       270
      202      0.416666666667      0.166666666667      0.916666666667    0.00115740740741       271
      203      0.333333333333      0.166666666667      0.916666666667    0.00115740740741       272
      204                0.25      0.166666666667      0.916666666667    0.00115740740741       273
      205      0.166666666667      0.166666666667      0.916666666667    0.00115740740741       274
      206     0.0833333333333      0.166666666667      0.916666666667    0.00115740740741       275
      207                   0     0.0833333333333      0.916666666667    0.00115740740741       276
      208      0.916666666667     0.0833333333333      0.916666666667    0.00115740740741       277
      209      0.833333333333     0.0833333333333      0.916666666667    0.00115740740741       278
      210                0.75     0.0833333333333      0.916666666667    0.00115740740741       279
      211      0.666666666667     0.0833333333333      0.916666666667    0.00115740740741       280
      212      0.583333333333     0.0833333333333      0.916666666667    0.00115740740741       281
      213                 0.5     0.0833333333333      0.916666666667    0.00115740740741       282
      214      0.416666666667     0.0833333333333      0.916666666667    0.00115740740741       283
      215      0.333333333333     0.0833333333333      0.916666666667    0.00115740740741       284
      216                0.25     0.0833333333333      0.916666666667    0.00115740740741       285
      217      0.166666666667     0.0833333333333      0.916666666667    0.00115740740741       286
      218     0.0833333333333     0.0833333333333      0.916666666667    0.00115740740741       287
      219                   0                   0      0.833333333333    0.00115740740741       288
      220      0.916666666667                   0      0.833333333333    0.00115740740741       289
      221      0.833333333333                   0      0.833333333333    0.00115740740741       290
      222                0.75                   0      0.833333333333    0.00115740740741       291
      223      0.666666666667                   0      0.833333333333    0.00115740740741       292
      224      0.583333333333                   0      0.833333333333    0.00115740740741       293
      225                 0.5                   0      0.833333333333    0.00115740740741       294
      226      0.416666666667                   0      0.833333333333    0.00115740740741       295
      227      0.333333333333                   0      0.833333333333    0.00115740740741       296
      228                0.25                   0      0.833333333333    0.00115740740741       297
      229      0.166666666667                   0      0.833333333333    0.00115740740741       298
      230     0.0833333333333                   0      0.833333333333    0.00115740740741       299
      231                   0      0.916666666667      0.833333333333    0.00115740740741       300
      232      0.916666666667      0.916666666667      0.833333333333    0.00115740740741       301
      233      0.833333333333      0.916666666667      0.833333333333    0.00115740740741       302
      234                0.75      0.916666666667      0.833333333333    0.00115740740741       303
      235      0.666666666667      0.916666666667      0.833333333333    0.00115740740741       304
      236      0.583333333333      0.916666666667      0.833333333333    0.00115740740741       305
      237                 0.5      0.916666666667      0.833333333333    0.00115740740741       306
      238      0.416666666667      0.916666666667      0.833333333333    0.00115740740741       307
      239      0.333333333333      0.916666666667      0.833333333333    0.00115740740741       308
      240                0.25      0.916666666667      0.833333333333    0.00115740740741       309
      241      0.166666666667      0.916666666667      0.833333333333    0.00115740740741       310
      242     0.0833333333333      0.916666666667      0.833333333333    0.00115740740741       311
      243                   0      0.833333333333      0.833333333333    0.00115740740741       312
      244      0.916666666667      0.833333333333      0.833333333333    0.00115740740741       313
      245      0.833333333333      0.833333333333      0.833333333333    0.00115740740741       314
      246                0.75      0.833333333333      0.833333333333    0.00115740740741       315
      247      0.666666666667      0.833333333333      0.833333333333    0.00115740740741       316
      248      0.583333333333      0.833333333333      0.833333333333    0.00115740740741       317
      249                 0.5      0.833333333333      0.833333333333    0.00115740740741       318
      250      0.416666666667      0.833333333333      0.833333333333    0.00115740740741       319
      251      0.333333333333      0.833333333333      0.833333333333    0.00115740740741       320
      252                0.25      0.833333333333      0.833333333333    0.00115740740741       321
      253      0.166666666667      0.833333333333      0.833333333333    0.00115740740741       322
      254     0.0833333333333      0.833333333333      0.833333333333    0.00115740740741       323
      255                   0                0.75      0.833333333333    0.00115740740741       324
      256      0.916666666667                0.75      0.833333333333    0.00115740740741       325
      257      0.833333333333                0.75      0.833333333333    0.00115740740741       326
      258                0.75                0.75      0.833333333333    0.00115740740741       327
      259      0.666666666667                0.75      0.833333333333    0.00115740740741       328
      260      0.583333333333                0.75      0.833333333333    0.00115740740741       329
      261                 0.5                0.75      0.833333333333    0.00115740740741       330
      262      0.416666666667                0.75      0.833333333333    0.00115740740741       331
      263      0.333333333333                0.75      0.833333333333    0.00115740740741       332
      264                0.25                0.75      0.833333333333    0.00115740740741       333
      265      0.166666666667                0.75      0.833333333333    0.00115740740741       334
      266     0.0833333333333                0.75      0.833333333333    0.00115740740741       335
      267                   0      0.666666666667      0.833333333333    0.00115740740741       336
      268      0.916666666667      0.666666666667      0.833333333333    0.00115740740741       337
      269      0.833333333333      0.666666666667      0.833333333333    0.00115740740741       338
      270                0.75      0.666666666667      0.833333333333    0.00115740740741       339
      271      0.666666666667      0.666666666667      0.833333333333    0.00115740740741       340
      272      0.583333333333      0.666666666667      0.833333333333    0.00115740740741       341
      273                 0.5      0.666666666667      0.833333333333    0.00115740740741       342
      274      0.416666666667      0.666666666667      0.833333333333    0.00115740740741       343
      275      0.333333333333      0.666666666667      0.833333333333    0.00115740740741       344
      276                0.25      0.666666666667      0.833333333333    0.00115740740741       345
      277      0.166666666667      0.666666666667      0.833333333333    0.00115740740741       346
      278     0.0833333333333      0.666666666667      0.833333333333    0.00115740740741       347
      279                   0      0.583333333333      0.833333333333    0.00115740740741       348
      280      0.916666666667      0.583333333333      0.833333333333    0.00115740740741       349
      281      0.833333333333      0.583333333333      0.833333333333    0.00115740740741       350
      282                0.75      0.583333333333      0.833333333333    0.00115740740741       351
      283      0.666666666667      0.583333333333      0.833333333333    0.00115740740741       352
      284      0.583333333333      0.583333333333      0.833333333333    0.00115740740741       353
      285                 0.5      0.583333333333      0.833333333333    0.00115740740741       354
      286      0.416666666667      0.583333333333      0.833333333333    0.00115740740741       355
      287      0.333333333333      0.583333333333      0.833333333333    0.00115740740741       356
      288                0.25      0.583333333333      0.833333333333    0.00115740740741       357
      289      0.166666666667      0.583333333333      0.833333333333    0.00115740740741       358
      290     0.0833333333333      0.583333333333      0.833333333333    0.00115740740741       359
      291                   0                 0.5      0.833333333333    0.00115740740741       360
      292      0.916666666667                 0.5      0.833333333333    0.00115740740741       361
      293      0.833333333333                 0.5      0.833333333333    0.00115740740741       362
      294                0.75                 0.5      0.833333333333    0.00115740740741       363
      295      0.666666666667                 0.5      0.833333333333    0.00115740740741       364
      296      0.583333333333                 0.5      0.833333333333    0.00115740740741       365
      297                 0.5                 0.5      0.833333333333    0.00115740740741       366
      298      0.416666666667                 0.5      0.833333333333    0.00115740740741       367
      299      0.333333333333                 0.5      0.833333333333    0.00115740740741       368
      300                0.25                 0.5      0.833333333333    0.00115740740741       369
      301      0.166666666667                 0.5      0.833333333333    0.00115740740741       370
      302     0.0833333333333                 0.5      0.833333333333    0.00115740740741       371
      303                   0      0.416666666667      0.833333333333    0.00115740740741       372
      304      0.916666666667      0.416666666667      0.833333333333    0.00115740740741       373
      305      0.833333333333      0.416666666667      0.833333333333    0.00115740740741       374
      306                0.75      0.416666666667      0.833333333333    0.00115740740741       375
      307      0.666666666667      0.416666666667      0.833333333333    0.00115740740741       376
      308      0.583333333333      0.416666666667      0.833333333333    0.00115740740741       377
      309                 0.5      0.416666666667      0.833333333333    0.00115740740741       378
      310      0.416666666667      0.416666666667      0.833333333333    0.00115740740741       379
      311      0.333333333333      0.416666666667      0.833333333333    0.00115740740741       380
      312                0.25      0.416666666667      0.833333333333    0.00115740740741       381
      313      0.166666666667      0.416666666667      0.833333333333    0.00115740740741       382
      314     0.0833333333333      0.416666666667      0.833333333333    0.00115740740741       383
      315                   0      0.333333333333      0.833333333333    0.00115740740741       384
      316      0.916666666667      0.333333333333      0.833333333333    0.00115740740741       385
      317      0.833333333333      0.333333333333      0.833333333333    0.00115740740741       386
      318                0.75      0.333333333333      0.833333333333    0.00115740740741       387
      319      0.666666666667      0.333333333333      0.833333333333    0.00115740740741       388
      320      0.583333333333      0.333333333333      0.833333333333    0.00115740740741       389
      321                 0.5      0.333333333333      0.833333333333    0.00115740740741       390
      322      0.416666666667      0.333333333333      0.833333333333    0.00115740740741       391
      323      0.333333333333      0.333333333333      0.833333333333    0.00115740740741       392
      324                0.25      0.333333333333      0.833333333333    0.00115740740741       393
      325      0.166666666667      0.333333333333      0.833333333333    0.00115740740741       394
      326     0.0833333333333      0.333333333333      0.833333333333    0.00115740740741       395
      327                   0                0.25      0.833333333333    0.00115740740741       396
      328      0.916666666667                0.25      0.833333333333    0.00115740740741       397
      329      0.833333333333                0.25      0.833333333333    0.00115740740741       398
      330                0.75                0.25      0.833333333333    0.00115740740741       399
      331      0.666666666667                0.25      0.833333333333    0.00115740740741       400
      332      0.583333333333                0.25      0.833333333333    0.00115740740741       401
      333                 0.5                0.25      0.833333333333    0.00115740740741       402
      334      0.416666666667                0.25      0.833333333333    0.00115740740741       403
      335      0.333333333333                0.25      0.833333333333    0.00115740740741       404
      336                0.25                0.25      0.833333333333    0.00115740740741       405
      337      0.166666666667                0.25      0.833333333333    0.00115740740741       406
      338     0.0833333333333                0.25      0.833333333333    0.00115740740741       407
      339                   0      0.166666666667      0.833333333333    0.00115740740741       408
      340      0.916666666667      0.166666666667      0.833333333333    0.00115740740741       409
      341      0.833333333333      0.166666666667      0.833333333333    0.00115740740741       410
      342                0.75      0.166666666667      0.833333333333    0.00115740740741       411
      343      0.666666666667      0.166666666667      0.833333333333    0.00115740740741       412
      344      0.583333333333      0.166666666667      0.833333333333    0.00115740740741       413
      345                 0.5      0.166666666667      0.833333333333    0.00115740740741       414
      346      0.416666666667      0.166666666667      0.833333333333    0.00115740740741       415
      347      0.333333333333      0.166666666667      0.833333333333    0.00115740740741       416
      348                0.25      0.166666666667      0.833333333333    0.00115740740741       417
      349      0.166666666667      0.166666666667      0.833333333333    0.00115740740741       418
      350     0.0833333333333      0.166666666667      0.833333333333    0.00115740740741       419
      351                   0     0.0833333333333      0.833333333333    0.00115740740741       420
      352      0.916666666667     0.0833333333333      0.833333333333    0.00115740740741       421
      353      0.833333333333     0.0833333333333      0.833333333333    0.00115740740741       422
      354                0.75     0.0833333333333      0.833333333333    0.00115740740741       423
      355      0.666666666667     0.0833333333333      0.833333333333    0.00115740740741       424
      356      0.583333333333     0.0833333333333      0.833333333333    0.00115740740741       425
      357                 0.5     0.0833333333333      0.833333333333    0.00115740740741       426
      358      0.416666666667     0.0833333333333      0.833333333333    0.00115740740741       427
      359      0.333333333333     0.0833333333333      0.833333333333    0.00115740740741       428
      360                0.25     0.0833333333333      0.833333333333    0.00115740740741       429
      361      0.166666666667     0.0833333333333      0.833333333333    0.00115740740741       430
      362     0.0833333333333     0.0833333333333      0.833333333333    0.00115740740741       431
      363                   0                   0                0.75    0.00115740740741       432
      364      0.916666666667                   0                0.75    0.00115740740741       433
      365      0.833333333333                   0                0.75    0.00115740740741       434
      366                0.75                   0                0.75    0.00115740740741       435
      367      0.666666666667                   0                0.75    0.00115740740741       436
      368      0.583333333333                   0                0.75    0.00115740740741       437
      369                 0.5                   0                0.75    0.00115740740741       438
      370      0.416666666667                   0                0.75    0.00115740740741       439
      371      0.333333333333                   0                0.75    0.00115740740741       440
      372                0.25                   0                0.75    0.00115740740741       441
      373      0.166666666667                   0                0.75    0.00115740740741       442
      374     0.0833333333333                   0                0.75    0.00115740740741       443
      375                   0      0.916666666667                0.75    0.00115740740741       444
      376      0.916666666667      0.916666666667                0.75    0.00115740740741       445
      377      0.833333333333      0.916666666667                0.75    0.00115740740741       446
      378                0.75      0.916666666667                0.75    0.00115740740741       447
      379      0.666666666667      0.916666666667                0.75    0.00115740740741       448
      380      0.583333333333      0.916666666667                0.75    0.00115740740741       449
      381                 0.5      0.916666666667                0.75    0.00115740740741       450
      382      0.416666666667      0.916666666667                0.75    0.00115740740741       451
      383      0.333333333333      0.916666666667                0.75    0.00115740740741       452
      384                0.25      0.916666666667                0.75    0.00115740740741       453
      385      0.166666666667      0.916666666667                0.75    0.00115740740741       454
      386     0.0833333333333      0.916666666667                0.75    0.00115740740741       455
      387                   0      0.833333333333                0.75    0.00115740740741       456
      388      0.916666666667      0.833333333333                0.75    0.00115740740741       457
      389      0.833333333333      0.833333333333                0.75    0.00115740740741       458
      390                0.75      0.833333333333                0.75    0.00115740740741       459
      391      0.666666666667      0.833333333333                0.75    0.00115740740741       460
      392      0.583333333333      0.833333333333                0.75    0.00115740740741       461
      393                 0.5      0.833333333333                0.75    0.00115740740741       462
      394      0.416666666667      0.833333333333                0.75    0.00115740740741       463
      395      0.333333333333      0.833333333333                0.75    0.00115740740741       464
      396                0.25      0.833333333333                0.75    0.00115740740741       465
      397      0.166666666667      0.833333333333                0.75    0.00115740740741       466
      398     0.0833333333333      0.833333333333                0.75    0.00115740740741       467
      399                   0                0.75                0.75    0.00115740740741       468
      400      0.916666666667                0.75                0.75    0.00115740740741       469
      401      0.833333333333                0.75                0.75    0.00115740740741       470
      402                0.75                0.75                0.75    0.00115740740741       471
      403      0.666666666667                0.75                0.75    0.00115740740741       472
      404      0.583333333333                0.75                0.75    0.00115740740741       473
      405                 0.5                0.75                0.75    0.00115740740741       474
      406      0.416666666667                0.75                0.75    0.00115740740741       475
      407      0.333333333333                0.75                0.75    0.00115740740741       476
      408                0.25                0.75                0.75    0.00115740740741       477
      409      0.166666666667                0.75                0.75    0.00115740740741       478
      410     0.0833333333333                0.75                0.75    0.00115740740741       479
      411                   0      0.666666666667                0.75    0.00115740740741       480
      412      0.916666666667      0.666666666667                0.75    0.00115740740741       481
      413      0.833333333333      0.666666666667                0.75    0.00115740740741       482
      414                0.75      0.666666666667                0.75    0.00115740740741       483
      415      0.666666666667      0.666666666667                0.75    0.00115740740741       484
      416      0.583333333333      0.666666666667                0.75    0.00115740740741       485
      417                 0.5      0.666666666667                0.75    0.00115740740741       486
      418      0.416666666667      0.666666666667                0.75    0.00115740740741       487
      419      0.333333333333      0.666666666667                0.75    0.00115740740741       488
      420                0.25      0.666666666667                0.75    0.00115740740741       489
      421      0.166666666667      0.666666666667                0.75    0.00115740740741       490
      422     0.0833333333333      0.666666666667                0.75    0.00115740740741       491
      423                   0      0.583333333333                0.75    0.00115740740741       492
      424      0.916666666667      0.583333333333                0.75    0.00115740740741       493
      425      0.833333333333      0.583333333333                0.75    0.00115740740741       494
      426                0.75      0.583333333333                0.75    0.00115740740741       495
      427      0.666666666667      0.583333333333                0.75    0.00115740740741       496
      428      0.583333333333      0.583333333333                0.75    0.00115740740741       497
      429                 0.5      0.583333333333                0.75    0.00115740740741       498
      430      0.416666666667      0.583333333333                0.75    0.00115740740741       499
      431      0.333333333333      0.583333333333                0.75    0.00115740740741       500
      432                0.25      0.583333333333                0.75    0.00115740740741       501
      433      0.166666666667      0.583333333333                0.75    0.00115740740741       502
      434     0.0833333333333      0.583333333333                0.75    0.00115740740741       503
      435                   0                 0.5                0.75    0.00115740740741       504
      436      0.916666666667                 0.5                0.75    0.00115740740741       505
      437      0.833333333333                 0.5                0.75    0.00115740740741       506
      438                0.75                 0.5                0.75    0.00115740740741       507
      439      0.666666666667                 0.5                0.75    0.00115740740741       508
      440      0.583333333333                 0.5                0.75    0.00115740740741       509
      441                 0.5                 0.5                0.75    0.00115740740741       510
      442      0.416666666667                 0.5                0.75    0.00115740740741       511
      443      0.333333333333                 0.5                0.75    0.00115740740741       512
      444                0.25                 0.5                0.75    0.00115740740741       513
      445      0.166666666667                 0.5                0.75    0.00115740740741       514
      446     0.0833333333333                 0.5                0.75    0.00115740740741       515
      447                   0      0.416666666667                0.75    0.00115740740741       516
      448      0.916666666667      0.416666666667                0.75    0.00115740740741       517
      449      0.833333333333      0.416666666667                0.75    0.00115740740741       518
      450                0.75      0.416666666667                0.75    0.00115740740741       519
      451      0.666666666667      0.416666666667                0.75    0.00115740740741       520
      452      0.583333333333      0.416666666667                0.75    0.00115740740741       521
      453                 0.5      0.416666666667                0.75    0.00115740740741       522
      454      0.416666666667      0.416666666667                0.75    0.00115740740741       523
      455      0.333333333333      0.416666666667                0.75    0.00115740740741       524
      456                0.25      0.416666666667                0.75    0.00115740740741       525
      457      0.166666666667      0.416666666667                0.75    0.00115740740741       526
      458     0.0833333333333      0.416666666667                0.75    0.00115740740741       527
      459                   0      0.333333333333                0.75    0.00115740740741       528
      460      0.916666666667      0.333333333333                0.75    0.00115740740741       529
      461      0.833333333333      0.333333333333                0.75    0.00115740740741       530
      462                0.75      0.333333333333                0.75    0.00115740740741       531
      463      0.666666666667      0.333333333333                0.75    0.00115740740741       532
      464      0.583333333333      0.333333333333                0.75    0.00115740740741       533
      465                 0.5      0.333333333333                0.75    0.00115740740741       534
      466      0.416666666667      0.333333333333                0.75    0.00115740740741       535
      467      0.333333333333      0.333333333333                0.75    0.00115740740741       536
      468                0.25      0.333333333333                0.75    0.00115740740741       537
      469      0.166666666667      0.333333333333                0.75    0.00115740740741       538
      470     0.0833333333333      0.333333333333                0.75    0.00115740740741       539
      471                   0                0.25                0.75    0.00115740740741       540
      472      0.916666666667                0.25                0.75    0.00115740740741       541
      473      0.833333333333                0.25                0.75    0.00115740740741       542
      474                0.75                0.25                0.75    0.00115740740741       543
      475      0.666666666667                0.25                0.75    0.00115740740741       544
      476      0.583333333333                0.25                0.75    0.00115740740741       545
      477                 0.5                0.25                0.75    0.00115740740741       546
      478      0.416666666667                0.25                0.75    0.00115740740741       547
      479      0.333333333333                0.25                0.75    0.00115740740741       548
      480                0.25                0.25                0.75    0.00115740740741       549
      481      0.166666666667                0.25                0.75    0.00115740740741       550
      482     0.0833333333333                0.25                0.75    0.00115740740741       551
      483                   0      0.166666666667                0.75    0.00115740740741       552
      484      0.916666666667      0.166666666667                0.75    0.00115740740741       553
      485      0.833333333333      0.166666666667                0.75    0.00115740740741       554
      486                0.75      0.166666666667                0.75    0.00115740740741       555
      487      0.666666666667      0.166666666667                0.75    0.00115740740741       556
      488      0.583333333333      0.166666666667                0.75    0.00115740740741       557
      489                 0.5      0.166666666667                0.75    0.00115740740741       558
      490      0.416666666667      0.166666666667                0.75    0.00115740740741       559
      491      0.333333333333      0.166666666667                0.75    0.00115740740741       560
      492                0.25      0.166666666667                0.75    0.00115740740741       561
      493      0.166666666667      0.166666666667                0.75    0.00115740740741       562
      494     0.0833333333333      0.166666666667                0.75    0.00115740740741       563
      495                   0     0.0833333333333                0.75    0.00115740740741       564
      496      0.916666666667     0.0833333333333                0.75    0.00115740740741       565
      497      0.833333333333     0.0833333333333                0.75    0.00115740740741       566
      498                0.75     0.0833333333333                0.75    0.00115740740741       567
      499      0.666666666667     0.0833333333333                0.75    0.00115740740741       568
      500      0.583333333333     0.0833333333333                0.75    0.00115740740741       569
      501                 0.5     0.0833333333333                0.75    0.00115740740741       570
      502      0.416666666667     0.0833333333333                0.75    0.00115740740741       571
      503      0.333333333333     0.0833333333333                0.75    0.00115740740741       572
      504                0.25     0.0833333333333                0.75    0.00115740740741       573
      505      0.166666666667     0.0833333333333                0.75    0.00115740740741       574
      506     0.0833333333333     0.0833333333333                0.75    0.00115740740741       575
      507                   0                   0      0.666666666667    0.00115740740741       576
      508      0.916666666667                   0      0.666666666667    0.00115740740741       577
      509      0.833333333333                   0      0.666666666667    0.00115740740741       578
      510                0.75                   0      0.666666666667    0.00115740740741       579
      511      0.666666666667                   0      0.666666666667    0.00115740740741       580
      512      0.583333333333                   0      0.666666666667    0.00115740740741       581
      513                 0.5                   0      0.666666666667    0.00115740740741       582
      514      0.416666666667                   0      0.666666666667    0.00115740740741       583
      515      0.333333333333                   0      0.666666666667    0.00115740740741       584
      516                0.25                   0      0.666666666667    0.00115740740741       585
      517      0.166666666667                   0      0.666666666667    0.00115740740741       586
      518     0.0833333333333                   0      0.666666666667    0.00115740740741       587
      519                   0      0.916666666667      0.666666666667    0.00115740740741       588
      520      0.916666666667      0.916666666667      0.666666666667    0.00115740740741       589
      521      0.833333333333      0.916666666667      0.666666666667    0.00115740740741       590
      522                0.75      0.916666666667      0.666666666667    0.00115740740741       591
      523      0.666666666667      0.916666666667      0.666666666667    0.00115740740741       592
      524      0.583333333333      0.916666666667      0.666666666667    0.00115740740741       593
      525                 0.5      0.916666666667      0.666666666667    0.00115740740741       594
      526      0.416666666667      0.916666666667      0.666666666667    0.00115740740741       595
      527      0.333333333333      0.916666666667      0.666666666667    0.00115740740741       596
      528                0.25      0.916666666667      0.666666666667    0.00115740740741       597
      529      0.166666666667      0.916666666667      0.666666666667    0.00115740740741       598
      530     0.0833333333333      0.916666666667      0.666666666667    0.00115740740741       599
      531                   0      0.833333333333      0.666666666667    0.00115740740741       600
      532      0.916666666667      0.833333333333      0.666666666667    0.00115740740741       601
      533      0.833333333333      0.833333333333      0.666666666667    0.00115740740741       602
      534                0.75      0.833333333333      0.666666666667    0.00115740740741       603
      535      0.666666666667      0.833333333333      0.666666666667    0.00115740740741       604
      536      0.583333333333      0.833333333333      0.666666666667    0.00115740740741       605
      537                 0.5      0.833333333333      0.666666666667    0.00115740740741       606
      538      0.416666666667      0.833333333333      0.666666666667    0.00115740740741       607
      539      0.333333333333      0.833333333333      0.666666666667    0.00115740740741       608
      540                0.25      0.833333333333      0.666666666667    0.00115740740741       609
      541      0.166666666667      0.833333333333      0.666666666667    0.00115740740741       610
      542     0.0833333333333      0.833333333333      0.666666666667    0.00115740740741       611
      543                   0                0.75      0.666666666667    0.00115740740741       612
      544      0.916666666667                0.75      0.666666666667    0.00115740740741       613
      545      0.833333333333                0.75      0.666666666667    0.00115740740741       614
      546                0.75                0.75      0.666666666667    0.00115740740741       615
      547      0.666666666667                0.75      0.666666666667    0.00115740740741       616
      548      0.583333333333                0.75      0.666666666667    0.00115740740741       617
      549                 0.5                0.75      0.666666666667    0.00115740740741       618
      550      0.416666666667                0.75      0.666666666667    0.00115740740741       619
      551      0.333333333333                0.75      0.666666666667    0.00115740740741       620
      552                0.25                0.75      0.666666666667    0.00115740740741       621
      553      0.166666666667                0.75      0.666666666667    0.00115740740741       622
      554     0.0833333333333                0.75      0.666666666667    0.00115740740741       623
      555                   0      0.666666666667      0.666666666667    0.00115740740741       624
      556      0.916666666667      0.666666666667      0.666666666667    0.00115740740741       625
      557      0.833333333333      0.666666666667      0.666666666667    0.00115740740741       626
      558                0.75      0.666666666667      0.666666666667    0.00115740740741       627
      559      0.666666666667      0.666666666667      0.666666666667    0.00115740740741       628
      560      0.583333333333      0.666666666667      0.666666666667    0.00115740740741       629
      561                 0.5      0.666666666667      0.666666666667    0.00115740740741       630
      562      0.416666666667      0.666666666667      0.666666666667    0.00115740740741       631
      563      0.333333333333      0.666666666667      0.666666666667    0.00115740740741       632
      564                0.25      0.666666666667      0.666666666667    0.00115740740741       633
      565      0.166666666667      0.666666666667      0.666666666667    0.00115740740741       634
      566     0.0833333333333      0.666666666667      0.666666666667    0.00115740740741       635
      567                   0      0.583333333333      0.666666666667    0.00115740740741       636
      568      0.916666666667      0.583333333333      0.666666666667    0.00115740740741       637
      569      0.833333333333      0.583333333333      0.666666666667    0.00115740740741       638
      570                0.75      0.583333333333      0.666666666667    0.00115740740741       639
      571      0.666666666667      0.583333333333      0.666666666667    0.00115740740741       640
      572      0.583333333333      0.583333333333      0.666666666667    0.00115740740741       641
      573                 0.5      0.583333333333      0.666666666667    0.00115740740741       642
      574      0.416666666667      0.583333333333      0.666666666667    0.00115740740741       643
      575      0.333333333333      0.583333333333      0.666666666667    0.00115740740741       644
      576                0.25      0.583333333333      0.666666666667    0.00115740740741       645
      577      0.166666666667      0.583333333333      0.666666666667    0.00115740740741       646
      578     0.0833333333333      0.583333333333      0.666666666667    0.00115740740741       647
      579                   0                 0.5      0.666666666667    0.00115740740741       648
      580      0.916666666667                 0.5      0.666666666667    0.00115740740741       649
      581      0.833333333333                 0.5      0.666666666667    0.00115740740741       650
      582                0.75                 0.5      0.666666666667    0.00115740740741       651
      583      0.666666666667                 0.5      0.666666666667    0.00115740740741       652
      584      0.583333333333                 0.5      0.666666666667    0.00115740740741       653
      585                 0.5                 0.5      0.666666666667    0.00115740740741       654
      586      0.416666666667                 0.5      0.666666666667    0.00115740740741       655
      587      0.333333333333                 0.5      0.666666666667    0.00115740740741       656
      588                0.25                 0.5      0.666666666667    0.00115740740741       657
      589      0.166666666667                 0.5      0.666666666667    0.00115740740741       658
      590     0.0833333333333                 0.5      0.666666666667    0.00115740740741       659
      591                   0      0.416666666667      0.666666666667    0.00115740740741       660
      592      0.916666666667      0.416666666667      0.666666666667    0.00115740740741       661
      593      0.833333333333      0.416666666667      0.666666666667    0.00115740740741       662
      594                0.75      0.416666666667      0.666666666667    0.00115740740741       663
      595      0.666666666667      0.416666666667      0.666666666667    0.00115740740741       664
      596      0.583333333333      0.416666666667      0.666666666667    0.00115740740741       665
      597                 0.5      0.416666666667      0.666666666667    0.00115740740741       666
      598      0.416666666667      0.416666666667      0.666666666667    0.00115740740741       667
      599      0.333333333333      0.416666666667      0.666666666667    0.00115740740741       668
      600                0.25      0.416666666667      0.666666666667    0.00115740740741       669
      601      0.166666666667      0.416666666667      0.666666666667    0.00115740740741       670
      602     0.0833333333333      0.416666666667      0.666666666667    0.00115740740741       671
      603                   0      0.333333333333      0.666666666667    0.00115740740741       672
      604      0.916666666667      0.333333333333      0.666666666667    0.00115740740741       673
      605      0.833333333333      0.333333333333      0.666666666667    0.00115740740741       674
      606                0.75      0.333333333333      0.666666666667    0.00115740740741       675
      607      0.666666666667      0.333333333333      0.666666666667    0.00115740740741       676
      608      0.583333333333      0.333333333333      0.666666666667    0.00115740740741       677
      609                 0.5      0.333333333333      0.666666666667    0.00115740740741       678
      610      0.416666666667      0.333333333333      0.666666666667    0.00115740740741       679
      611      0.333333333333      0.333333333333      0.666666666667    0.00115740740741       680
      612                0.25      0.333333333333      0.666666666667    0.00115740740741       681
      613      0.166666666667      0.333333333333      0.666666666667    0.00115740740741       682
      614     0.0833333333333      0.333333333333      0.666666666667    0.00115740740741       683
      615                   0                0.25      0.666666666667    0.00115740740741       684
      616      0.916666666667                0.25      0.666666666667    0.00115740740741       685
      617      0.833333333333                0.25      0.666666666667    0.00115740740741       686
      618                0.75                0.25      0.666666666667    0.00115740740741       687
      619      0.666666666667                0.25      0.666666666667    0.00115740740741       688
      620      0.583333333333                0.25      0.666666666667    0.00115740740741       689
      621                 0.5                0.25      0.666666666667    0.00115740740741       690
      622      0.416666666667                0.25      0.666666666667    0.00115740740741       691
      623      0.333333333333                0.25      0.666666666667    0.00115740740741       692
      624                0.25                0.25      0.666666666667    0.00115740740741       693
      625      0.166666666667                0.25      0.666666666667    0.00115740740741       694
      626     0.0833333333333                0.25      0.666666666667    0.00115740740741       695
      627                   0      0.166666666667      0.666666666667    0.00115740740741       696
      628      0.916666666667      0.166666666667      0.666666666667    0.00115740740741       697
      629      0.833333333333      0.166666666667      0.666666666667    0.00115740740741       698
      630                0.75      0.166666666667      0.666666666667    0.00115740740741       699
      631      0.666666666667      0.166666666667      0.666666666667    0.00115740740741       700
      632      0.583333333333      0.166666666667      0.666666666667    0.00115740740741       701
      633                 0.5      0.166666666667      0.666666666667    0.00115740740741       702
      634      0.416666666667      0.166666666667      0.666666666667    0.00115740740741       703
      635      0.333333333333      0.166666666667      0.666666666667    0.00115740740741       704
      636                0.25      0.166666666667      0.666666666667    0.00115740740741       705
      637      0.166666666667      0.166666666667      0.666666666667    0.00115740740741       706
      638     0.0833333333333      0.166666666667      0.666666666667    0.00115740740741       707
      639                   0     0.0833333333333      0.666666666667    0.00115740740741       708
      640      0.916666666667     0.0833333333333      0.666666666667    0.00115740740741       709
      641      0.833333333333     0.0833333333333      0.666666666667    0.00115740740741       710
      642                0.75     0.0833333333333      0.666666666667    0.00115740740741       711
      643      0.666666666667     0.0833333333333      0.666666666667    0.00115740740741       712
      644      0.583333333333     0.0833333333333      0.666666666667    0.00115740740741       713
      645                 0.5     0.0833333333333      0.666666666667    0.00115740740741       714
      646      0.416666666667     0.0833333333333      0.666666666667    0.00115740740741       715
      647      0.333333333333     0.0833333333333      0.666666666667    0.00115740740741       716
      648                0.25     0.0833333333333      0.666666666667    0.00115740740741       717
      649      0.166666666667     0.0833333333333      0.666666666667    0.00115740740741       718
      650     0.0833333333333     0.0833333333333      0.666666666667    0.00115740740741       719
      651                   0                   0      0.583333333333    0.00115740740741       720
      652      0.916666666667                   0      0.583333333333    0.00115740740741       721
      653      0.833333333333                   0      0.583333333333    0.00115740740741       722
      654                0.75                   0      0.583333333333    0.00115740740741       723
      655      0.666666666667                   0      0.583333333333    0.00115740740741       724
      656      0.583333333333                   0      0.583333333333    0.00115740740741       725
      657                 0.5                   0      0.583333333333    0.00115740740741       726
      658      0.416666666667                   0      0.583333333333    0.00115740740741       727
      659      0.333333333333                   0      0.583333333333    0.00115740740741       728
      660                0.25                   0      0.583333333333    0.00115740740741       729
      661      0.166666666667                   0      0.583333333333    0.00115740740741       730
      662     0.0833333333333                   0      0.583333333333    0.00115740740741       731
      663                   0      0.916666666667      0.583333333333    0.00115740740741       732
      664      0.916666666667      0.916666666667      0.583333333333    0.00115740740741       733
      665      0.833333333333      0.916666666667      0.583333333333    0.00115740740741       734
      666                0.75      0.916666666667      0.583333333333    0.00115740740741       735
      667      0.666666666667      0.916666666667      0.583333333333    0.00115740740741       736
      668      0.583333333333      0.916666666667      0.583333333333    0.00115740740741       737
      669                 0.5      0.916666666667      0.583333333333    0.00115740740741       738
      670      0.416666666667      0.916666666667      0.583333333333    0.00115740740741       739
      671      0.333333333333      0.916666666667      0.583333333333    0.00115740740741       740
      672                0.25      0.916666666667      0.583333333333    0.00115740740741       741
      673      0.166666666667      0.916666666667      0.583333333333    0.00115740740741       742
      674     0.0833333333333      0.916666666667      0.583333333333    0.00115740740741       743
      675                   0      0.833333333333      0.583333333333    0.00115740740741       744
      676      0.916666666667      0.833333333333      0.583333333333    0.00115740740741       745
      677      0.833333333333      0.833333333333      0.583333333333    0.00115740740741       746
      678                0.75      0.833333333333      0.583333333333    0.00115740740741       747
      679      0.666666666667      0.833333333333      0.583333333333    0.00115740740741       748
      680      0.583333333333      0.833333333333      0.583333333333    0.00115740740741       749
      681                 0.5      0.833333333333      0.583333333333    0.00115740740741       750
      682      0.416666666667      0.833333333333      0.583333333333    0.00115740740741       751
      683      0.333333333333      0.833333333333      0.583333333333    0.00115740740741       752
      684                0.25      0.833333333333      0.583333333333    0.00115740740741       753
      685      0.166666666667      0.833333333333      0.583333333333    0.00115740740741       754
      686     0.0833333333333      0.833333333333      0.583333333333    0.00115740740741       755
      687                   0                0.75      0.583333333333    0.00115740740741       756
      688      0.916666666667                0.75      0.583333333333    0.00115740740741       757
      689      0.833333333333                0.75      0.583333333333    0.00115740740741       758
      690                0.75                0.75      0.583333333333    0.00115740740741       759
      691      0.666666666667                0.75      0.583333333333    0.00115740740741       760
      692      0.583333333333                0.75      0.583333333333    0.00115740740741       761
      693                 0.5                0.75      0.583333333333    0.00115740740741       762
      694      0.416666666667                0.75      0.583333333333    0.00115740740741       763
      695      0.333333333333                0.75      0.583333333333    0.00115740740741       764
      696                0.25                0.75      0.583333333333    0.00115740740741       765
      697      0.166666666667                0.75      0.583333333333    0.00115740740741       766
      698     0.0833333333333                0.75      0.583333333333    0.00115740740741       767
      699                   0      0.666666666667      0.583333333333    0.00115740740741       768
      700      0.916666666667      0.666666666667      0.583333333333    0.00115740740741       769
      701      0.833333333333      0.666666666667      0.583333333333    0.00115740740741       770
      702                0.75      0.666666666667      0.583333333333    0.00115740740741       771
      703      0.666666666667      0.666666666667      0.583333333333    0.00115740740741       772
      704      0.583333333333      0.666666666667      0.583333333333    0.00115740740741       773
      705                 0.5      0.666666666667      0.583333333333    0.00115740740741       774
      706      0.416666666667      0.666666666667      0.583333333333    0.00115740740741       775
      707      0.333333333333      0.666666666667      0.583333333333    0.00115740740741       776
      708                0.25      0.666666666667      0.583333333333    0.00115740740741       777
      709      0.166666666667      0.666666666667      0.583333333333    0.00115740740741       778
      710     0.0833333333333      0.666666666667      0.583333333333    0.00115740740741       779
      711                   0      0.583333333333      0.583333333333    0.00115740740741       780
[...]
                                     nloc = 91
                                     nloc = 91
                                     nloc = 91
                                     nloc = 91
                                     nloc = 91
                                     nloc = 91
                                     nloc = 91
                                     nloc = 91
                                     nloc = 91
                                     nloc = 91
                                     nloc = 91
                                     nloc = 91
                                     nloc = 91
                                     nloc = 91
                                     nloc = 91
                                     nloc = 91
                                     nloc = 91
                                     nloc = 91
                                     nloc = 91
                                     nloc = 91
                                     nloc = 91
                                     nloc = 91
                                     nloc = 91
                                     nloc = 91
                                     nloc = 91
                                     nloc = 91
                                     nloc = 91
                                     nloc = 91
                                     nloc = 91
                                     nloc = 91
                                     nloc = 91
                                     nloc = 91
                                     nloc = 91
                                     nloc = 91
                                     nloc = 91
                                     nloc = 91
                                     nloc = 91
                                     nloc = 91
                                     nloc = 91
                                     nloc = 91
                                     nloc = 91
                                     nloc = 91
                                     nloc = 91
                                     nloc = 91
                                     nloc = 91
                                     nloc = 91
                                     nloc = 91
                                     nloc = 91
                                     nloc = 91
                                     nloc = 91
                                     nloc = 91
                                     nloc = 91
                                     nloc = 91
                                     nloc = 91
                                     nloc = 91
                                     nloc = 91
                                     nloc = 91
                                     nloc = 91
                                     nloc = 91
                                     nloc = 91
                                     nloc = 91
                                     nloc = 91
                                     nloc = 91
                                     nloc = 91
                                     nloc = 91
                                     nloc = 91
                                     nloc = 91
                                     nloc = 91
                                     nloc = 91
                                     nloc = 91
                                     nloc = 91
                                     nloc = 91
                                     nloc = 91
                                     nloc = 91
                                     nloc = 91
                                     nloc = 91
                                     nloc = 91
                                     nloc = 91
                                     nloc = 91
                                     nloc = 91
                                     nloc = 91
                                     nloc = 91
                                     nloc = 91
                                     nloc = 91
                                     nloc = 91
                                     nloc = 91
                                     nloc = 91
                                     nloc = 91
                                     nloc = 91
                                     nloc = 91
                                     nloc = 91
                                     nloc = 91
                                     nloc = 91
                                     nloc = 91
                                     nloc = 91
                                     nloc = 91
                                     nloc = 91
                                     nloc = 91
                                     nloc = 91
                                     nloc = 91
                                     nloc = 91
                                     nloc = 91
                                     nloc = 91
                                     nloc = 91
                                     nloc = 91
                                     nloc = 91
                                     nloc = 91
                                     nloc = 91
                                     nloc = 91
                                     nloc = 91
                                     nloc = 91
                                     nloc = 91
                                     nloc = 91
                                     nloc = 91
                                     nloc = 91
                                     nloc = 91
                                     nloc = 91
                                     nloc = 91
                                     nloc = 91
                                     nloc = 91
                                     nloc = 91
                                     nloc = 91
                                     nloc = 91
                                     nloc = 91
                                     nloc = 91
                                     nloc = 91
                                     nloc = 91
                                     nloc = 91
                                     nloc = 91
                                     nloc = 91
                                     nloc = 91
                                     nloc = 91
                                     nloc = 91
                                     nloc = 91
                                     nloc = 91
                                     nloc = 91
                                     nloc = 91
                                     nloc = 91
                                     nloc = 91
                                     nloc = 91
                                     nloc = 91
                                     nloc = 91
                                     nloc = 91
                                     nloc = 91
                                     nloc = 91
                                     nloc = 91
                                     nloc = 91
                                     nloc = 91
                                     nloc = 91
                                     nloc = 91
                                     nloc = 91
                                     nloc = 91
                                     nloc = 91
                                     nloc = 91
                                     nloc = 91
                                     nloc = 91
                                     nloc = 91
                                     nloc = 91
                                     nloc = 91
                                     nloc = 91
                                     nloc = 91
                                     nloc = 91
                                     nloc = 91
                                     nloc = 91
                                     nloc = 91
                                     nloc = 91
                                     nloc = 91
                                     nloc = 91
                                     nloc = 91
                                     nloc = 91
                                     nloc = 91
                                     nloc = 91
                                     nloc = 91
                                     nloc = 91
                                     nloc = 91
                                     nloc = 91
                                     nloc = 91
                                     nloc = 91
                                     nloc = 91
                                     nloc = 91
                                     nloc = 91
                                     nloc = 91
                                     nloc = 91
                                     nloc = 91
                                     nloc = 91
                                     nloc = 91
                                     nloc = 91
                                     nloc = 91
                                     nloc = 91
                                     nloc = 91
                                     nloc = 91
                                     nloc = 91
                                     nloc = 91
                                     nloc = 91
                                     nloc = 91
                                     nloc = 91
                                     nloc = 91
                                     nloc = 91
                                     nloc = 91
                                     nloc = 91
                                     nloc = 91
                                     nloc = 91
                                     nloc = 91
                                     nloc = 91
                                     nloc = 91
                                     nloc = 91
                                     nloc = 91
                                     nloc = 91
                                     nloc = 91
                                     nloc = 91
                                     nloc = 91
                                     nloc = 91
                                     nloc = 91
                                     nloc = 91
                                     nloc = 91
                                     nloc = 91
                                     nloc = 91
                                     nloc = 91
                                     nloc = 91
                                     nloc = 91
                                     nloc = 91
                                     nloc = 91
                                     nloc = 91
                                     nloc = 91
                                     nloc = 91
                                     nloc = 91
                                     nloc = 91
                                     nloc = 91
                                     nloc = 91
                                     nloc = 91
                                     nloc = 91
                                     nloc = 91
                                     nloc = 91
                                     nloc = 91
                                     nloc = 91
                                     nloc = 91
                                     nloc = 91
                                     nloc = 91
                                     nloc = 91
                                     nloc = 91
                                     nloc = 91
                                     nloc = 91
                                     nloc = 91
                                     nloc = 91
                                     nloc = 91
                                     nloc = 91
                                     nloc = 91
                                     nloc = 91
                                     nloc = 91
                                     nloc = 91
                                     nloc = 91
                                     nloc = 91
                                     nloc = 91
                                     nloc = 91
                                     nloc = 91
                                     nloc = 91
                                     nloc = 91
                                     nloc = 91
                                     nloc = 91
                                     nloc = 91
                                     nloc = 91
                                     nloc = 91
                                     nloc = 91
                                     nloc = 91
                                     nloc = 91
                                     nloc = 91
                                     nloc = 91
                                     nloc = 91
                                     nloc = 91
                                     nloc = 91
                                     nloc = 91
                                     nloc = 91
                                     nloc = 91
                                     nloc = 91
                                     nloc = 91
                                     nloc = 91
                                     nloc = 91
                                     nloc = 91
                                     nloc = 91
                                     nloc = 91
                                     nloc = 91
                                     nloc = 91
                                     nloc = 91
                                     nloc = 91
                                     nloc = 91
                                     nloc = 91
                                     nloc = 91
                                     nloc = 91
                                     nloc = 91
                                     nloc = 91
                                     nloc = 91
                                     nloc = 91
                                     nloc = 91
                                     nloc = 91
                                     nloc = 91
                                     nloc = 91
                                     nloc = 91
                                     nloc = 91
                                     nloc = 91
                                     nloc = 91
                                     nloc = 91
                                     nloc = 91
                                     nloc = 91
                                     nloc = 91
                                     nloc = 91
                                     nloc = 91
                                     nloc = 91
                                     nloc = 91
                                     nloc = 91
                                     nloc = 91
                                     nloc = 91
                                     nloc = 91
                                     nloc = 91
                                     nloc = 91
                                     nloc = 91
                                     nloc = 91
                                     nloc = 91
                                     nloc = 91
                                     nloc = 91
                                     nloc = 91
                                     nloc = 91
                                     nloc = 91
                                     nloc = 91
                                     nloc = 91
                                     nloc = 91
                                     nloc = 91
                                     nloc = 91
                                     nloc = 91
                                     nloc = 91
                                     nloc = 91
                                     nloc = 91
                                     nloc = 91
                                     nloc = 91
                                     nloc = 91
                                     nloc = 91
                                     nloc = 91
                                     nloc = 91
                                     nloc = 91
                                     nloc = 91
                                     nloc = 91
                                     nloc = 91
                                     nloc = 91
                                     nloc = 91
                                     nloc = 91
                                     nloc = 91
                                     nloc = 91
                                     nloc = 91
                                     nloc = 91
                                     nloc = 91
                                     nloc = 91
                                     nloc = 91
                                     nloc = 91
                                     nloc = 91
                                     nloc = 91
                                     nloc = 91
                                     nloc = 91
                                     nloc = 91
                                     nloc = 91
                                     nloc = 91
                                     nloc = 91
                                     nloc = 91
                                     nloc = 91
                                     nloc = 91
                                     nloc = 91
                                     nloc = 91
                                     nloc = 91
                                     nloc = 91
                                     nloc = 91
                                     nloc = 91
                                     nloc = 91

 OUTPUT DOS FILE IN: OUT.ABACUS/DOS1
                    min state energy (eV) = -5.5
                    max state energy (eV) = 17.2
               delta energy interval (eV) = 0.01
                          number of bands = 8
                        sum up the states = 16
 Fermi energy is 0.484 Rydberg


  |CLASS_NAME---------|NAME---------------|TIME(Sec)-----|CALLS----|AVG------|PER%-------
                                      total         7.3771        11      0.67     1e+02%
               Run_lcao           lcao_line         7.3521         1       7.4     1e+02%
            ORB_control      set_orb_tables        0.54937         1      0.55       7.4%
         ORB_gen_tables          gen_tables        0.54937         1      0.55       7.4%
          ORB_table_phi          init_Table        0.33876         1      0.34       4.6%
          ORB_table_phi      cal_ST_Phi12_R        0.33461        70    0.0048       4.5%
              LOOP_ions            opt_ions         6.6742         1       6.7        90%
        ESolver_KS_LCAO    othercalculation         3.9435         1       3.9        53%
            HSolverLCAO               solve           3.82         1       3.8        52%
             HamiltLCAO              each_k        0.24338       868   0.00028       3.3%
         Gint_interface            cal_gint        0.22711         1      0.23       3.1%
             HamiltLCAO                 H_k          1.803       434    0.0042        24%
            LCAO_Hamilt        calculate_Hk         1.8889       868    0.0022        26%
                 Gint_k        folding_vl_k        0.23996       868   0.00028       3.3%
               LCAO_nnr      folding_fixedH         3.2632      1736    0.0019        44%
             Efficience                 H_k         1.7966       434    0.0041        24%
              DiagoElpa          elpa_solve         1.6816       868    0.0019        23%
 ----------------------------------------------------------------------------------------

 CLASS_NAME---------|NAME---------------|MEMORY(MB)--------
                                         269.6
        ORB_table_phi               Jl(x)           97.8
        init_meshball        meshball_pos          1.337
        Grid_Meshcell        index2normal          1.253
        Grid_Meshcell         index2ucell          1.253
        ORB_table_phi         Table_SR&TR          1.225
 ----------------------------------------------------------

 Start  Time  : Tue Jul  5 15:52:04 2022
 Finish Time  : Tue Jul  5 15:52:11 2022
 Total  Time  : 0 h 0 mins 7 secs 
