  MPI-parallelism will be employed.
------------------------------------------------------------
          Invoking FHI-aims ...
          Version 151211
          Git rev. (modified): d01ffe6 [mbddev] implement print out of MBD bands
          Compiled on 2015/12/11 at 14:59:51 on host theobook27.

          When using FHI-aims, please cite the following reference:

          Volker Blum, Ralf Gehrke, Felix Hanke, Paula Havu,
          Ville Havu, Xinguo Ren, Karsten Reuter, and Matthias Scheffler,
          'Ab Initio Molecular Simulations with Numeric Atom-Centered Orbitals: FHI-aims',
          Computer Physics Communications 180, 2175-2196 (2009)

          For any questions about FHI-aims, please visit the aimsclub website
          with its forums and wiki. Contributions to both the forums and the
          wiki are warmly encouraged - they are for you, and everyone is welcome there.

------------------------------------------------------------

  Date     :  20160131, Time     :  153208.455
  Time zero on CPU 1             :   0.200000000000000E-01  s.
  Internal wall clock time zero  :           223486328.455  s.

  Using        2 parallel tasks.
  Task        0 on host theobook27 reporting.
  Task        1 on host theobook27 reporting.

  Performing system and environment tests:
  | Environment variable OMP_NUM_THREADS correctly set to 1.
  | Stacksize not measured: no C compiler
  | Checking for scalapack...
  | Testing pdtran()...
  | All pdtran() tests passed.

  Obtaining array dimensions for all initial allocations:
  
  -----------------------------------------------------------------------
  Parsing control.in (first pass over file, find array dimensions only).
  The contents of control.in will be repeated verbatim below
  unless switched off by setting 'verbatim_writeout .false.' .
  in the first line of control.in .
  -----------------------------------------------------------------------
  
    xc                 pbe
    charge             0.
    spin               none
    relativistic       none
    occupation_type    gaussian 0.01
    sc_accuracy_rho    1E-5
    sc_accuracy_eev    1E-3
    sc_accuracy_etot   1E-6
    sc_accuracy_forces 1E-3
    k_grid             2 2 2
    MD_run             0.005 NVT_nose-hoover 300 900
    MD_time_step       0.001
    MD_MB_init         300
    MD_thermostat_units cm^-1
    output_level       MD_light
  ################################################################################
  #
  #  FHI-aims code project
  #  VB, Fritz-Haber Institut, 2009
  #
  #  Suggested "light" defaults for H atom (to be pasted into control.in file)
  #  Be sure to double-check any results obtained with these settings for post-processing,
  #  e.g., with the "tight" defaults and larger basis sets.
  #
  ################################################################################
    species        H
  #     global species definitions
      nucleus             1
      mass                1.00794
  #
      l_hartree           4
  #
      cut_pot             3.5  1.5  1.0
      basis_dep_cutoff    1e-4
  #
      radial_base         24 5.0
      radial_multiplier   1
      angular_grids       specified
        division   0.2421   50
        division   0.3822  110
        division   0.4799  194
        division   0.5341  302
  #      division   0.5626  434
  #      division   0.5922  590
  #      division   0.6542  770
  #      division   0.6868 1202
  #      outer_grid  770
        outer_grid  302
  ################################################################################
  #
  #  Definition of "minimal" basis
  #
  ################################################################################
  #     valence basis states
      valence      1  s   1.
  #     ion occupancy
      ion_occ      1  s   0.5
  ################################################################################
  #
  #  Suggested additional basis functions. For production calculations,
  #  uncomment them one after another (the most important basis functions are
  #  listed first).
  #
  #  Basis constructed for dimers: 0.5 A, 0.7 A, 1.0 A, 1.5 A, 2.5 A
  #
  ################################################################################
  #  "First tier" - improvements: -1014.90 meV to -62.69 meV
       hydro 2 s 2.1
       hydro 2 p 3.5
  #  "Second tier" - improvements: -12.89 meV to -1.83 meV
  #     hydro 1 s 0.85
  #     hydro 2 p 3.7
  #     hydro 2 s 1.2
  #     hydro 3 d 7
  #  "Third tier" - improvements: -0.25 meV to -0.12 meV
  #     hydro 4 f 11.2
  #     hydro 3 p 4.8
  #     hydro 4 d 9
  #     hydro 3 s 3.2
  ################################################################################
  #
  #  FHI-aims code project
  #  VB, Fritz-Haber Institut, 2009
  #
  #  Suggested "light" defaults for O atom (to be pasted into control.in file)
  #  Be sure to double-check any results obtained with these settings for post-processing,
  #  e.g., with the "tight" defaults and larger basis sets.
  #
  ################################################################################
    species        O
  #     global species definitions
      nucleus             8
      mass                15.9994
  #
      l_hartree           4
  #
      cut_pot             3.5  1.5  1.0
      basis_dep_cutoff    1e-4
  #
      radial_base         36 5.0
      radial_multiplier   1
       angular_grids specified
        division   0.2659   50
        division   0.4451  110
        division   0.6052  194
        division   0.7543  302
  #      division   0.8014  434
  #      division   0.8507  590
  #      division   0.8762  770
  #      division   0.9023  974
  #      division   1.2339 1202
  #      outer_grid 974
        outer_grid 302
  ################################################################################
  #
  #  Definition of "minimal" basis
  #
  ################################################################################
  #     valence basis states
      valence      2  s   2.
      valence      2  p   4.
  #     ion occupancy
      ion_occ      2  s   1.
      ion_occ      2  p   3.
  ################################################################################
  #
  #  Suggested additional basis functions. For production calculations,
  #  uncomment them one after another (the most important basis functions are
  #  listed first).
  #
  #  Constructed for dimers: 1.0 A, 1.208 A, 1.5 A, 2.0 A, 3.0 A
  #
  ################################################################################
  #  "First tier" - improvements: -699.05 meV to -159.38 meV
       hydro 2 p 1.8
       hydro 3 d 7.6
       hydro 3 s 6.4
  #  "Second tier" - improvements: -49.91 meV to -5.39 meV
  #     hydro 4 f 11.6
  #     hydro 3 p 6.2
  #     hydro 3 d 5.6
  #     hydro 5 g 17.6
  #     hydro 1 s 0.75
  #  "Third tier" - improvements: -2.83 meV to -0.50 meV
  #     ionic 2 p auto
  #     hydro 4 f 10.8
  #     hydro 4 d 4.7
  #     hydro 2 s 6.8
  #  "Fourth tier" - improvements: -0.40 meV to -0.12 meV
  #     hydro 3 p 5
  #     hydro 3 s 3.3
  #     hydro 5 g 15.6
  #     hydro 4 f 17.6
  #     hydro 4 d 14
  # Further basis functions - -0.08 meV and below
  #     hydro 3 s 2.1
  #     hydro 4 d 11.6
  #     hydro 3 p 16
  #     hydro 2 s 17.2
  
  -----------------------------------------------------------------------
  Completed first pass over input file control.in .
  -----------------------------------------------------------------------
  
  
  -----------------------------------------------------------------------
  Parsing geometry.in (first pass over file, find array dimensions only).
  The contents of geometry.in will be repeated verbatim below
  unless switched off by setting 'verbatim_writeout .false.' .
  in the first line of geometry.in .
  -----------------------------------------------------------------------
  
  lattice_vector 4.0 0.0 0.0
  lattice_vector 0.0 4.0 0.0
  lattice_vector 0.0 0.0 4.0
  atom  2.8 2.6 2.0 H
  atom  1.2 2.6 2.0 H
  atom  2.0 2.0 2.0 O
  
  -----------------------------------------------------------------------
  Completed first pass over input file geometry.in .
  -----------------------------------------------------------------------
  

  Basic array size parameters:
  | Number of species                 :        2
  | Number of atoms                   :        3
  | Number of lattice vectors         :        3
  | Max. basis fn. angular momentum   :        2
  | Max. atomic/ionic basis occupied n:        2
  | Max. number of basis fn. types    :        2
  | Max. radial fns per species/type  :        3
  | Max. logarithmic grid size        :     1301
  | Max. radial integration grid size :       36
  | Max. angular integration grid size:      302
  | Max. angular grid division number :        8
  | Radial grid for Hartree potential :     1301
  | Number of spin channels           :        1

------------------------------------------------------------
          Reading file control.in.
------------------------------------------------------------
  XC: Using PBE gradient-corrected functionals.
  Charge =   0.000000E+00: Neutral system requested explicitly.
  Spin treatment: No spin polarisation.
  Non-relativistic treatment of kinetic energy.
  Occupation type: Gaussian broadening, width =   0.100000E-01 eV.
  Convergence accuracy of self-consistent charge density:  0.1000E-04
  Convergence accuracy of sum of eigenvalues:  0.1000E-02
  Convergence accuracy of total energy:  0.1000E-05
  Convergence accuracy of forces:  0.1000E-02
  Found k-point grid:         2         2         2
  Running Born-Oppenheimer  molecular dynamics in NVT ensemble with  Nose-Hoover thermostat
   | simulation time =       0.005000 ps
   | at temperature  =     300.000000 K
   | thermostat effective mass =     900.000000
  Molecular dynamics time step =       0.001000 ps
  Initializing MD run with Maxwell-Boltzmann momentum distribution at T =     300.000000 K
  Thermostat units for molecular dynamics: cm^-1
  Requested output level: MD_light            
 
  Reading configuration options for species H                   .
  | Found nuclear charge :   1.0000
  | Found atomic mass :    1.00794000000000      amu
  | Found l_max for Hartree potential  :   4
  | Found cutoff potl. onset [A], width [A], scale factor :    3.50000    1.50000    1.00000
  | Threshold for basis-dependent cutoff potential is   0.100000E-03
  | Found data for basic radial integration grid :    24 points, outermost radius =    5.000 A
  | Found multiplier for basic radial grid :   1
  | Found angular grid specification: user-specified.
  | Specified grid contains     5 separate shells.
  | Check grid settings after all constraints further below.
  | Found free-atom valence shell :  1 s   1.000
  | No ionic wave fns used. Skipping ion_occ.
  | Found hydrogenic basis function :  2 s   2.100
  | Found hydrogenic basis function :  2 p   3.500
  Species H                   : Missing cutoff potential type.
  Defaulting to exp(1/x)/(1-x)^2 type cutoff potential.
  Species H : No 'logarithmic' tag. Using default grid for free atom:
  | Default logarithmic grid data [bohr] : 0.1000E-03 0.1000E+03 0.1012E+01
  Species H : On-site basis accuracy parameter (for Gram-Schmidt orthonormalisation) not specified.
  Using default value basis_acc =  0.1000000E-03.
  Species H                   : Using default innermost maximum threshold i_radial=  2 for radial functions.
  Species H                   : Default cutoff onset for free atom density etc. : 0.35000000E+01 AA.
  Species H                   : Basic radial grid will be enhanced according to radial_multiplier =   1, to contain    24 grid points.
 
  Reading configuration options for species O                   .
  | Found nuclear charge :   8.0000
  | Found atomic mass :    15.9994000000000      amu
  | Found l_max for Hartree potential  :   4
  | Found cutoff potl. onset [A], width [A], scale factor :    3.50000    1.50000    1.00000
  | Threshold for basis-dependent cutoff potential is   0.100000E-03
  | Found data for basic radial integration grid :    36 points, outermost radius =    5.000 A
  | Found multiplier for basic radial grid :   1
  | Found angular grid specification: user-specified.
  | Specified grid contains     5 separate shells.
  | Check grid settings after all constraints further below.
  | Found free-atom valence shell :  2 s   2.000
  | Found free-atom valence shell :  2 p   4.000
  | No ionic wave fns used. Skipping ion_occ.
  | No ionic wave fns used. Skipping ion_occ.
  | Found hydrogenic basis function :  2 p   1.800
  | Found hydrogenic basis function :  3 d   7.600
  | Found hydrogenic basis function :  3 s   6.400
  Species O                   : Missing cutoff potential type.
  Defaulting to exp(1/x)/(1-x)^2 type cutoff potential.
  Species O : No 'logarithmic' tag. Using default grid for free atom:
  | Default logarithmic grid data [bohr] : 0.1000E-03 0.1000E+03 0.1012E+01
  Species O : On-site basis accuracy parameter (for Gram-Schmidt orthonormalisation) not specified.
  Using default value basis_acc =  0.1000000E-03.
  Species O                   : Using default innermost maximum threshold i_radial=  2 for radial functions.
  Species O                   : Default cutoff onset for free atom density etc. : 0.35000000E+01 AA.
  Species O                   : Basic radial grid will be enhanced according to radial_multiplier =   1, to contain    36 grid points.
 
  Finished reading input file 'control.in'. Consistency checks are next.
 
  Target number of points in a grid batch is not set. Defaulting to  100
  Method for grid partitioning is not set. Defaulting to parallel hash+maxmin partitioning.
  Batch size limit is not set. Defaulting to    200
  By default, will store active basis functions for each batch.
  If in need of memory, prune_basis_once .false. can be used to disable this option.
  communication_type for Hartree potential was not specified.
  Defaulting to calc_hartree .
  Defaulting to Pulay charge density mixer.
  Pulay mixer: Number of relevant iterations not set.
  Defaulting to    8 iterations.
  Pulay mixer: Number of initial linear mixing iterations not set.
  Defaulting to    0 iterations.
  Work space size for distributed Hartree potential not set.
  Defaulting to   0.200000E+03 MB.
  Mixing parameter for charge density mixing has not been set.
  Using default: charge_mix_param =     0.2000.
  Algorithm-dependent basis array size parameters:
  | n_max_pulay                         :        8
  Maximum number of self-consistency iterations not provided.
  Presetting  1000 iterations.
  Geometry relaxation not requested: no relaxation will be performed.
  Handling of forces: Unphysical translation and rotation will be removed from forces.
  Changed MD thermostat mass units, Q =   0.2789E+0000 amu*bohr^2
  No accuracy limit for integral partition fn. given. Defaulting to  0.1000E-14.
  No threshold value for u(r) in integrations given. Defaulting to  0.1000E-05.
  No accuracy for occupation numbers given. Defaulting to  0.1000E-07.
  No threshold value for occupation numbers given. Defaulting to  0.0000E+00.
  No accuracy for fermi level given. Defaulting to  0.1000E-19.
  Maximum # of iterations to find E_F not set. Defaulting to  200.
  Preferred method for the eigenvalue solver ('KS_method') not specified in 'control.in'.
  Defaulting to serial version, 'lapack_fast', since more k-points than CPUs available.
  Will not use alltoall communication since running on < 1024 CPUs.
  Threshold for basis singularities not set.
  Default threshold for basis singularities:  0.1000E-04
  partition_type (choice of integration weights) for integrals was not specified.
  | Using a version of the partition function of Stratmann and coworkers ('stratmann_smoother').
  | At each grid point, the set of atoms used to build the partition table is smoothly restricted to
  | only those atoms whose free-atom density would be non-zero at that grid point.
  Partitioning for Hartree potential was not defined. Using partition_type for integrals.
  | Adjusted default value of keyword multip_moments_threshold to:       0.10000000E-11
  | This value may affect high angular momentum components of the Hartree potential in periodic systems.
  Angular momentum expansion for Kerker preconditioner not set explicitly.
  | Using default value of   0
  No explicit requirement for turning off preconditioner.
  | By default, it will be turned off when the charge convergence reaches
  | sc_accuracy_rho  =   0.100000E-04
  | sc_accuracy_eev  =   0.100000E-02
  | sc_accuracy_etot =   0.100000E-05
  No special mixing parameter while Kerker preconditioner is on.
  Using default: charge_mix_param =     0.2000.
  No q(lm)/r^(l+1) cutoff set for long-range Hartree potential.
  | Using default value of  0.100000E-09 .
  | Verify using the multipole_threshold keyword.
  Defaulting to new monopole extrapolation.
  Density update method: automatic selection selected.
  Using density matrix based charge density update.
  Using density matrix based charge density update.
  Using packed matrix style: index .
  Defaulting to use time-reversal symmetry for k-point grid.
------------------------------------------------------------


------------------------------------------------------------
          Reading geometry description geometry.in.
------------------------------------------------------------
  Input structure read successfully.
  The structure contains        3 atoms,  and a total of         10.000 electrons.

  Input geometry:
  | Unit cell:
  |         4.000000         0.000000         0.000000
  |         0.000000         4.000000         0.000000
  |         0.000000         0.000000         4.000000
  | Atomic structure:
  |       Atom                x [A]            y [A]            z [A]
  |    1: Species H              2.800000         2.600000         2.000000
  |    2: Species H              1.200000         2.600000         2.000000
  |    3: Species O              2.000000         2.000000         2.000000
  |

  | The smallest distance between any two atoms is         1.00000000 AA.
  |
  | The first atom of this pair is atom number                      1 .
  | The second atom of this pair is atom number                     3 .
  | Wigner-Seitz cell of the first atom image           0     0     0 .
  | (The Wigner-Seitz cell of the second atom is 0 0 0  by definition.)

  Quantities derived from the lattice vectors:
  | Reciprocal lattice vector 1:  1.570796  0.000000  0.000000
  | Reciprocal lattice vector 2:  0.000000  1.570796  0.000000
  | Reciprocal lattice vector 3:  0.000000  0.000000  1.570796
  | Unit cell volume                               :   0.640000E+02  A^3

  Number of empty states per atom not set in control.in - providing a guess from actual geometry.
  | Total number of empty states used during s.c.f. cycle:        6
  If you use a very high smearing, use empty_states (per atom!) in control.in to increase this value.

  Structure-dependent array size parameters: 
  | Maximum number of distinct radial functions  :        9
  | Maximum number of basis functions            :       24
  | Number of Kohn-Sham states (occupied + empty):       11
------------------------------------------------------------

------------------------------------------------------------
          Preparing all fixed parts of the calculation.
------------------------------------------------------------
  Determining machine precision:
    2.225073858507201E-308
  Setting up grids for atomic and cluster calculations.

  Creating wave function, potential, and density for free atoms.

  Species: H

  List of occupied orbitals and eigenvalues:
    n    l              occ      energy [Ha]    energy [eV]
    1    0           1.0000        -0.237589        -6.4651


  Species: O

  List of occupied orbitals and eigenvalues:
    n    l              occ      energy [Ha]    energy [eV]
    1    0           2.0000       -18.898188      -514.2459
    2    0           2.0000        -0.878505       -23.9053
    2    1           4.0000        -0.331779        -9.0282

  Creating fixed part of basis set: Ionic, confined, hydrogenic.
 
  H                    hydrogenic:
 
  List of hydrogenic basis orbitals: 
    n    l      effective z      eigenvalue [eV]  inner max. [A]     outer max. [A]     outer radius [A]   
    2    0         2.100000       -14.9728           0.193243           1.317208           4.583499
    2    1         3.500000       -41.6669           0.602369           0.602369           3.723403
 
 
  O                    hydrogenic:
 
  List of hydrogenic basis orbitals: 
    n    l      effective z      eigenvalue [eV]  inner max. [A]     outer max. [A]     outer radius [A]   
    2    1         1.800000       -10.9749           1.164242           1.164242           4.578029
    3    2         7.600000       -87.3180           0.624125           0.624125           3.251020
    3    0         6.400000       -61.9207           0.061167           1.081902           4.001998
 

  Adding cutoff potential to free-atom effective potential.
  Creating atomic-like basis functions for current effective potential.

  Species H                   :

  List of atomic basis orbitals and eigenvalues:
    n    l      energy [Ha]    energy [eV]    outer radius [A]
    1    0        -0.237589        -6.4651       4.527807


  Species O                   :

  List of atomic basis orbitals and eigenvalues:
    n    l      energy [Ha]    energy [eV]    outer radius [A]
    1    0       -18.898188      -514.2459       1.415765
    2    0        -0.878505       -23.9053       4.413171
    2    1        -0.331779        -9.0282       4.522403

  Assembling full basis from fixed parts.
  | Species H :   atomic orbital   1 s accepted.
  | Species H :    hydro orbital   2 s accepted.
  | Species H :    hydro orbital   2 p accepted.
  | Species O :   atomic orbital   1 s accepted.
  | Species O :    hydro orbital   3 s accepted.
  | Species O :   atomic orbital   2 s accepted.
  | Species O :   atomic orbital   2 p accepted.
  | Species O :    hydro orbital   2 p accepted.
  | Species O :    hydro orbital   3 d accepted.
 
  Basis size parameters after reduction:
  | Total number of radial functions:        9
  | Total number of basis functions :       24
 
  Testing on-site integration grid accuracy.
  |  Species  Function  <phi|h_atom|phi> (log., in eV)  <phi|h_atom|phi> (rad., in eV)
           1        1                 -6.4663192853                 -6.4651273558
           1        2                 13.7111246313                 13.7170609718
           1        3                 25.2673269279                 25.2674696378
           2        4               -514.2458688638               -514.2457643834
           2        5                 15.1795651126                 15.1795290741
           2        6                -21.5359799773                -21.5360846185
           2        7                 -9.0283069236                 -9.0284644067
           2        8                  8.3027758563                  8.2834874195
           2        9                 45.8339351984                 45.8338762260

  Preparing densities etc. for the partition functions (integrals / Hartree potential).

  Preparations completed.
  max(cpu_time)          :      0.150 s.
  Wall clock time (cpu1) :      0.153 s.
------------------------------------------------------------

------------------------------------------------------------
          Begin self-consistency loop: Initialization.

          Date     :  20160131, Time     :  153208.647
------------------------------------------------------------

  Initializing index lists of integration centers etc. from given atomic structure:
  Mapping all atomic coordinates to central unit cell.

  Initializing the k-points
          Using symmetry for reducing the k-points
  | k-points reduced from:        8 to        8
  | Number of k-points                             :         8
  The eigenvectors in the calculations are REAL.
  | K-points in task   0:         4
  | K-points in task   1:         4
  | Number of basis functions in the Hamiltonian integrals :       520
  | Number of basis functions in a single unit cell        :        24
  | Number of centers in hartree potential         :       503
  | Number of centers in hartree multipole         :       356
  | Number of centers in electron density summation:       244
  | Number of centers in basis integrals           :       288
  | Number of centers in integrals                 :       108
  | Number of centers in hamiltonian               :       244
  | Consuming         13 KiB for k_phase.
  | Number of super-cells (origin) [n_cells]                     :         729
  | Number of super-cells (after PM_index) [n_cells]             :         108
  | Number of super-cells in hamiltonian [n_cells_in_hamiltonian]:         108
  | Size of matrix packed + index :       10886
  Partitioning the integration grid into batches with parallel hashing+maxmin method.
  | Number of batches:      190
  | Maximal batch size:     131
  | Minimal batch size:      58
  | Average batch size:      83.811
  | Standard deviation of batch sizes:      28.823

  Integration load balanced across     2 MPI tasks.
  Work distribution over tasks is as follows:
  Task     0 has       8000 integration points.
  Task     1 has       7924 integration points.
  Initializing partition tables, free-atom densities, potentials, etc. across the integration grid (initialize_grid_storage).
  | initialize_grid_storage: Actual outermost partition radius vs. multipole_radius_free
  | (-- VB: in principle, multipole_radius_free should be larger, hence this output)
  | Species        1: Confinement radius =              4.999999999999999 AA, multipole_radius_free =              5.054417573612229 AA.
  | Species        1: outer_partition_radius set to              5.054417573612229 AA .
  | Species        2: Confinement radius =              4.999999999999999 AA, multipole_radius_free =              5.048384829883283 AA.
  | Species        2: outer_partition_radius set to              5.048384829883283 AA .
  | Original list of interatomic distances with         288 x        288 entries is created.
  | Net number of integration points:    15924
  | of which are non-zero points    :    13647
  | Numerical average free-atom electrostatic potential    :     -2.50294915 eV
  Obtaining max. number of non-zero basis functions in each batch (get_n_compute_maxes).
  | Maximal number of non-zero basis functions:      184 in task     0
  | Maximal number of non-zero basis functions:      184 in task     1
  Integrating Hamiltonian matrix: batch-based integration.
  Time summed over all CPUs for integration: real work        0.390 s, elapsed        0.401 s
  Integrating overlap matrix.
  Transforming overlap matrix and checking for singularities.
  Overlap matrix is nonsingular:
  | Lowest eigenvalue at k-point        1:  0.605393E-02
  Time summed over all CPUs for integration: real work        0.227 s, elapsed        0.238 s
  Decreasing sparse matrix size:
   Tolerance:  9.999999824516700E-014
   Hamiltonian matrix
  | Array has     7925 nonzero elements out of    10886 elements
  | Sparsity factor is 0.272
   Overlap matrix
  | Array has     7305 nonzero elements out of    10886 elements
  | Sparsity factor is 0.329
  New size of hamiltonian matrix:        7998

  Updating Kohn-Sham eigenvalues, eigenvectors, occupation numbers, and Fermi level.
  Solving generalized eigenproblem
  Updating Kohn-Sham eigenvalues and eigenfunctions.
  Solving real generalised eigenvalue problem by standard LAPACK (fast)
  Updating Kohn-Sham eigenvalues and eigenfunctions.
  Solving real generalised eigenvalue problem by standard LAPACK (fast)
  Updating Kohn-Sham eigenvalues and eigenfunctions.
  Solving real generalised eigenvalue problem by standard LAPACK (fast)
  Updating Kohn-Sham eigenvalues and eigenfunctions.
  Solving real generalised eigenvalue problem by standard LAPACK (fast)
  Determining occupation numbers for Kohn-Sham eigenstates.
  | Chemical potential (Fermi level) in eV                 : -.53404479E+01
  | Error in electron count due to remaining E_F inaccuracy: 0.00000000E+00
  | Maximum occupation number of highest empty state:  0.00E+00

  Writing Kohn-Sham eigenvalues.
  K-point:       1 at    0.000000    0.000000    0.000000 (in units of recip. lattice)

  State    Occupation    Eigenvalue [Ha]    Eigenvalue [eV]
      1       2.00000         -18.992339         -516.80783
      2       2.00000          -1.074502          -29.23867
      3       2.00000          -0.606758          -16.51072
      4       2.00000          -0.493784          -13.43655
      5       2.00000          -0.424615          -11.55437
      6       0.00000          -0.145217           -3.95155
      7       0.00000           0.120245            3.27203
      8       0.00000           0.270692            7.36589
      9       0.00000           0.399757           10.87793
     10       0.00000           0.460230           12.52350
     11       0.00000           0.534414           14.54214

  What follows are estimated values for band gap, HOMO, LUMO, etc.
  | They are estimated on a discrete k-point grid and not necessarily exact.
  | For converged numbers, create a DOS and/or band structure plot on a denser k-grid.

  Highest occupied state (VBM) at    -11.51310570 eV (relative to internal zero)
  | Occupation number:      2.00000000
  | K-point:       7 at    0.500000    0.500000    0.000000 (in units of recip. lattice)

  Lowest unoccupied state (CBM) at    -3.95155315 eV (relative to internal zero)
  | Occupation number:      0.00000000
  | K-point:       1 at    0.000000    0.000000    0.000000 (in units of recip. lattice)

  ESTIMATED overall HOMO-LUMO gap:      7.56155255 eV between HOMO at k-point 7 and LUMO at k-point 1
  | This appears to be an indirect band gap.
  | Smallest direct gap :      7.60281216 eV for k_point 1 at    0.000000    0.000000    0.000000 (in units of recip. lattice)
  The gap value is above 0.2 eV. Unless you are using a very sparse k-point grid,
  this system is most likely an insulator or a semiconductor.
  Calculating total energy contributions from superposition of free atom densities.

  Total energy components:
  | Sum of eigenvalues            :         -43.19923411 Ha       -1175.51096949 eV
  | XC energy correction          :          -9.00585243 Ha        -245.06171330 eV
  | XC potential correction       :          11.57915910 Ha         315.08495039 eV
  | Free-atom electrostatic energy:         -35.82404893 Ha        -974.82196968 eV
  | Hartree energy correction     :           0.00000000 Ha           0.00000000 eV
  | Entropy correction            :           0.00000000 Ha           0.00000000 eV
  | ---------------------------
  | Total energy                  :         -76.44997637 Ha       -2080.30970207 eV
  | Total energy, T -> 0          :         -76.44997637 Ha       -2080.30970207 eV  <-- do not rely on this value for anything but (periodic) metals
  | Electronic free energy        :         -76.44997637 Ha       -2080.30970207 eV

  Derived energy quantities:
  | Kinetic energy                :          75.52297763 Ha        2055.08478290 eV
  | Electrostatic energy          :        -142.96710157 Ha       -3890.33277167 eV
  | Energy correction for multipole
  | error in Hartree potential    :           0.00000000 Ha           0.00000000 eV
  | Sum of eigenvalues per atom                           :        -391.83698983 eV
  | Total energy (T->0) per atom                          :        -693.43656736 eV  <-- do not rely on this value for anything but (periodic) metals
  | Electronic free energy per atom                       :        -693.43656736 eV
  Initialize hartree_potential_storage
  Max. number of atoms included in rho_multipole:            3

  End scf initialization - timings             :  max(cpu_time)    wall_clock(cpu1)
  | Time for scf. initialization               :        0.840 s           0.846 s
  | Boundary condition initialization          :        0.070 s           0.070 s
  | Integration                                :        0.320 s           0.320 s
  | Solution of K.-S. eqns.                    :        0.010 s           0.003 s
  | Grid partitioning                          :        0.040 s           0.042 s
  | Preloading free-atom quantities on grid    :        0.010 s           0.006 s
  | Free-atom superposition energy             :        0.060 s           0.061 s
  | Total energy evaluation                    :        0.000 s           0.000 s
------------------------------------------------------------
Convergence:    q app. |  density  | eigen (eV) | Etot (eV) | forces (eV/A) |       CPU time |     Clock time
  SCF    1 :  0.41E-03 |  0.30E+00 |   0.16E+02 |  0.11E+01 |             . |        1.150 s |        1.165 s
  SCF    2 :  0.10E-02 |  0.19E+00 |   0.20E+02 |  0.62E+00 |             . |        1.170 s |        1.166 s
  SCF    3 :  0.12E-02 |  0.98E-01 |  -0.14E+01 |  0.60E-01 |             . |        1.160 s |        1.168 s
  SCF    4 :  0.14E-02 |  0.35E-01 |   0.38E+01 |  0.26E-01 |             . |        1.170 s |        1.174 s
  SCF    5 :  0.17E-02 |  0.90E-02 |   0.12E+01 |  0.24E-02 |             . |        1.180 s |        1.174 s
  SCF    6 :  0.17E-02 |  0.24E-02 |   0.39E+00 |  0.14E-03 |             . |        1.300 s |        1.308 s
  SCF    7 :  0.14E-02 |  0.14E-02 |  -0.51E-01 |  0.20E-04 |             . |        1.300 s |        1.311 s
  SCF    8 :  0.56E-03 |  0.46E-03 |   0.64E-01 | -0.21E-06 |             . |        1.210 s |        1.206 s
  SCF    9 :  0.34E-03 |  0.12E-03 |  -0.22E-01 |  0.39E-05 |             . |        1.200 s |        1.206 s
  SCF   10 :  0.12E-03 |  0.73E-04 |   0.11E-01 |  0.74E-06 |             . |        1.200 s |        1.205 s
  SCF   11 :  0.13E-03 |  0.43E-05 |  -0.94E-03 | -0.46E-08 |             . |        1.190 s |        1.202 s
  SCF   12 :  0.13E-03 |  0.47E-05 |   0.53E-03 |  0.85E-07 |      0.97E+01 |        1.930 s |        1.926 s
  SCF   13 :  0.13E-03 |  0.19E-06 |   0.15E-04 |  0.17E-08 |      0.17E-04 |        4.150 s |        4.313 s

  Total energy components:
  | Sum of eigenvalues            :         -41.71906410 Ha       -1135.23349423 eV
  | XC energy correction          :          -9.20782478 Ha        -250.55766056 eV
  | XC potential correction       :          11.84325856 Ha         322.27146247 eV
  | Free-atom electrostatic energy:         -35.82404893 Ha        -974.82196968 eV
  | Hartree energy correction     :          -1.47470508 Ha         -40.12876704 eV
  | Entropy correction            :           0.00000000 Ha           0.00000000 eV
  | ---------------------------
  | Total energy                  :         -76.38238433 Ha       -2078.47042903 eV
  | Total energy, T -> 0          :         -76.38238433 Ha       -2078.47042903 eV  <-- do not rely on this value for anything but (periodic) metals
  | Electronic free energy        :         -76.38238433 Ha       -2078.47042903 eV

  Derived energy quantities:
  | Kinetic energy                :          76.00289989 Ha        2068.14413195 eV
  | Electrostatic energy          :        -143.17745943 Ha       -3896.05690041 eV
  | Energy correction for multipole
  | error in Hartree potential    :          -0.00282933 Ha          -0.07698989 eV
  | Sum of eigenvalues per atom                           :        -378.41116474 eV
  | Total energy (T->0) per atom                          :        -692.82347634 eV  <-- do not rely on this value for anything but (periodic) metals
  | Electronic free energy per atom                       :        -692.82347634 eV
  What follows are estimated values for band gap, HOMO, LUMO, etc.
  | They are estimated on a discrete k-point grid and not necessarily exact.
  | For converged numbers, create a DOS and/or band structure plot on a denser k-grid.

  Highest occupied state (VBM) at     -7.43681795 eV (relative to internal zero)
  | Occupation number:      2.00000000
  | K-point:       7 at    0.500000    0.500000    0.000000 (in units of recip. lattice)

  Lowest unoccupied state (CBM) at    -3.33277232 eV (relative to internal zero)
  | Occupation number:      0.00000000
  | K-point:       1 at    0.000000    0.000000    0.000000 (in units of recip. lattice)

  ESTIMATED overall HOMO-LUMO gap:      4.10404563 eV between HOMO at k-point 7 and LUMO at k-point 1
  | This appears to be an indirect band gap.
  | Smallest direct gap :      4.19122747 eV for k_point 1 at    0.000000    0.000000    0.000000 (in units of recip. lattice)
  The gap value is above 0.2 eV. Unless you are using a very sparse k-point grid,
  this system is most likely an insulator or a semiconductor.

  Self-consistency cycle converged.

  Removing unitary transformations (pure translations, rotations) from forces on atoms.
  Atomic forces before filtering:
  | Net force on center of mass :  -0.324462E-09  0.402630E-02  0.267243E-10 eV/A
  Atomic forces after filtering:
  | Net force on center of mass :   0.216300E-15  0.178406E-15 -0.778845E-26 eV/A

  Energy and forces in a compact form:
  | Total energy uncorrected      :         -0.207847042902594E+04 eV
  | Total energy corrected        :         -0.207847042902594E+04 eV  <-- do not rely on this value for anything but (periodic) metals
  | Electronic free energy        :         -0.207847042902594E+04 eV
  Total atomic forces (unitary forces cleaned) [eV/Ang]:
  |   1         -0.138268558388624E+01         -0.503728797971614E+00         -0.891209922261007E-11
  |   2          0.138268558410283E+01         -0.503728797971791E+00         -0.909176001469109E-11
  |   3         -0.216587137668792E-09          0.100745759594340E+01          0.180038592373012E-10

  Relaxation / MD: End force evaluation.       :  max(cpu_time)    wall_clock(cpu1)
  | Time for this force evaluation             :       20.030 s          20.382 s

------------------------------------------------------------
  Molecular dynamics: Attempting to update all nuclear coordinates.

  Removing unitary transformations (pure translations, rotations) from forces on atoms.
  Atomic forces before filtering:
  | Net force on center of mass :   0.216300E-15  0.178406E-15 -0.778845E-26 eV/A
  Atomic forces after filtering:
  | Net force on center of mass :   0.164798E-15 -0.178406E-15  0.000000E+00 eV/A
  | Initial seed for random number generator from system time:                   153229
  Initializing velocities for molecular dynamics using Maxwell-Boltzmann distribution

------------------------------------------------------------
  Advancing structure using Born-Oppenheimer Molecular Dynamics:
  Complete information for previous time-step:
  | Time step number          :        0
  | Simulation time           :           0.000000000000000E+00 ps
  | Electronic free energy    :          -0.207847042902594E+04 eV
  | Temperature (nuclei)      :           0.300000000000000E+03 K
  | Nuclear kinetic energy    :           0.116334130674625E+00 eV
  | Total energy (el.+nuc.)   :          -0.207835409489527E+04 eV
  | Thermostat value ln(s)    :           0.000000000000000E+00
  | Thermostat momentum pi    :           0.000000000000000E+00 eV ps
  | Nose-Hoover Hamiltonian   :          -0.207835409489527E+04 eV
------------------------------------------------------------
  Atomic structure (and velocities) as used in the preceding time step:
                      x [A]             y [A]             z [A]       Atom
   atom               2.80000000        2.60000000        2.00000000  H
     velocity         -16.66642905         25.51588094        -13.68976284
   atom               1.20000000        2.60000000        2.00000000  H
     velocity           6.00452826         26.63663297        -12.04882475
   atom               2.00000000        2.00000000        2.00000000  O
     velocity           0.67168496         -3.28553601          1.62149530
------------------------------------------------------------

------------------------------------------------------------
          Begin self-consistency loop: Re-initialization.

  Date     :  20160131, Time     :  153229.029
------------------------------------------------------------

  Initializing index lists of integration centers etc. from given atomic structure:
  Mapping all atomic coordinates to central unit cell.

  Initializing the k-points
          Using symmetry for reducing the k-points
  | k-points reduced from:        8 to        8
  | Number of k-points                             :         8
  The eigenvectors in the calculations are REAL.
  | K-points in task   0:         4
  | K-points in task   1:         4
  | Number of basis functions in the Hamiltonian integrals :       520
  | Number of basis functions in a single unit cell        :        24
  | Number of centers in hartree potential         :       541
  | Number of centers in hartree multipole         :       382
  | Number of centers in electron density summation:       265
  | Number of centers in basis integrals           :       310
  | Number of centers in integrals                 :       108
  | Number of centers in hamiltonian               :       265
  | Consuming         15 KiB for k_phase.
  | Number of super-cells (origin) [n_cells]                     :         729
  | Number of super-cells (after PM_index) [n_cells]             :         122
  | Number of super-cells in hamiltonian [n_cells_in_hamiltonian]:         122
  | Size of matrix packed + index :       10847
  Partitioning the integration grid into batches with parallel hashing+maxmin method.
  Initializing partition tables, free-atom densities, potentials, etc. across the integration grid (initialize_grid_storage).
  | Species        1: outer_partition_radius set to              5.054417573612229 AA .
  | Species        2: outer_partition_radius set to              5.048384829883283 AA .
  | Net number of integration points:    15924
  | of which are non-zero points    :    13622
  Calculating total energy contributions from superposition of free atom densities.
  Initialize hartree_potential_storage
  Max. number of atoms included in rho_multipole:            3
  Integrating overlap matrix.
  Time summed over all CPUs for integration: real work        0.219 s, elapsed        0.221 s
  Orthonormalizing eigenvectors

  End scf reinitialization - timings           :  max(cpu_time)    wall_clock(cpu1)
  | Time for scf. reinitialization             :        0.630 s           0.627 s
  | Integration                                :        0.110 s           0.111 s
  | Grid partitioning                          :        0.040 s           0.045 s
  | Preloading free-atom quantities on grid    :        0.340 s           0.342 s
  | Free-atom superposition energy             :        0.060 s           0.061 s
  | K.-S. eigenvector reorthonormalization     :        0.010 s           0.000 s
------------------------------------------------------------
Convergence:    q app. |  density  | eigen (eV) | Etot (eV) | forces (eV/A) |       CPU time |     Clock time
  SCF    1 :  0.12E-03 |  0.43E+00 |  -0.11E+04 | -0.21E+04 |             . |        0.980 s |        0.992 s
  SCF    2 : -0.37E-03 |  0.10E+01 |  -0.38E+02 |  0.89E+01 |             . |        1.250 s |        1.269 s
  SCF    3 : -0.36E-03 |  0.58E+00 |  -0.44E+02 |  0.34E+01 |             . |        1.270 s |        1.310 s
  SCF    4 : -0.33E-03 |  0.14E+00 |  -0.20E+01 |  0.39E-01 |             . |        1.240 s |        1.253 s
  SCF    5 :  0.15E-04 |  0.77E-01 |   0.49E+01 |  0.35E-01 |             . |        1.220 s |        1.238 s
  SCF    6 :  0.66E-03 |  0.74E-02 |   0.50E+00 |  0.32E-03 |             . |        1.280 s |        1.277 s
  SCF    7 :  0.15E-02 |  0.52E-02 |  -0.89E-01 |  0.97E-04 |             . |        1.470 s |        1.475 s
  SCF    8 :  0.13E-02 |  0.11E-02 |   0.99E-01 |  0.26E-04 |             . |        2.090 s |        2.114 s
  SCF    9 :  0.75E-03 |  0.24E-03 |   0.13E-02 | -0.86E-06 |             . |        1.290 s |        1.302 s
  SCF   10 :  0.28E-03 |  0.13E-03 |   0.98E-02 |  0.22E-05 |             . |        1.390 s |        1.385 s
  SCF   11 :  0.16E-03 |  0.18E-04 |   0.11E-02 | -0.10E-06 |             . |        1.350 s |        1.504 s
  SCF   12 :  0.16E-03 |  0.39E-05 |  -0.72E-04 |  0.58E-07 |             . |        2.160 s |        2.288 s
  SCF   13 :  0.15E-03 |  0.28E-05 |  -0.46E-03 |  0.11E-06 |      0.95E+01 |        3.070 s |        3.107 s
  SCF   14 :  0.15E-03 |  0.42E-06 |  -0.17E-04 |  0.16E-07 |      0.72E-04 |        5.640 s |        5.716 s

  Total energy components:
  | Sum of eigenvalues            :         -41.72159263 Ha       -1135.30229896 eV
  | XC energy correction          :          -9.20654804 Ha        -250.52291875 eV
  | XC potential correction       :          11.84154730 Ha         322.22489677 eV
  | Free-atom electrostatic energy:         -35.83080740 Ha        -975.00587715 eV
  | Hartree energy correction     :          -1.46541740 Ha         -39.87603637 eV
  | Entropy correction            :           0.00000000 Ha           0.00000000 eV
  | ---------------------------
  | Total energy                  :         -76.38281817 Ha       -2078.48223447 eV
  | Total energy, T -> 0          :         -76.38281817 Ha       -2078.48223447 eV  <-- do not rely on this value for anything but (periodic) metals
  | Electronic free energy        :         -76.38281817 Ha       -2078.48223447 eV

  Derived energy quantities:
  | Kinetic energy                :          76.00316002 Ha        2068.15121053 eV
  | Electrostatic energy          :        -143.17943015 Ha       -3896.11052625 eV
  | Energy correction for multipole
  | error in Hartree potential    :          -0.00290985 Ha          -0.07918092 eV
  | Sum of eigenvalues per atom                           :        -378.43409965 eV
  | Total energy (T->0) per atom                          :        -692.82741149 eV  <-- do not rely on this value for anything but (periodic) metals
  | Electronic free energy per atom                       :        -692.82741149 eV
  What follows are estimated values for band gap, HOMO, LUMO, etc.
  | They are estimated on a discrete k-point grid and not necessarily exact.
  | For converged numbers, create a DOS and/or band structure plot on a denser k-grid.

  Highest occupied state (VBM) at     -7.44239701 eV (relative to internal zero)
  | Occupation number:      2.00000000
  | K-point:       7 at    0.500000    0.500000    0.000000 (in units of recip. lattice)

  Lowest unoccupied state (CBM) at    -3.31209704 eV (relative to internal zero)
  | Occupation number:      0.00000000
  | K-point:       1 at    0.000000    0.000000    0.000000 (in units of recip. lattice)

  ESTIMATED overall HOMO-LUMO gap:      4.13029997 eV between HOMO at k-point 7 and LUMO at k-point 1
  | This appears to be an indirect band gap.
  | Smallest direct gap :      4.21690240 eV for k_point 1 at    0.000000    0.000000    0.000000 (in units of recip. lattice)
  The gap value is above 0.2 eV. Unless you are using a very sparse k-point grid,
  this system is most likely an insulator or a semiconductor.

  Self-consistency cycle converged.

  Removing unitary transformations (pure translations, rotations) from forces on atoms.
  Atomic forces before filtering:
  | Net force on center of mass :   0.269911E-03  0.369750E-02  0.690080E-04 eV/A
  Atomic forces after filtering:
  | Net force on center of mass :   0.000000E+00  0.178406E-15  0.000000E+00 eV/A

  Energy and forces in a compact form:
  | Total energy uncorrected      :         -0.207848223446601E+04 eV
  | Total energy corrected        :         -0.207848223446601E+04 eV  <-- do not rely on this value for anything but (periodic) metals
  | Electronic free energy        :         -0.207848223446601E+04 eV
  Total atomic forces (unitary forces cleaned) [eV/Ang]:
  |   1         -0.102443835539403E+01         -0.620002349243735E+00          0.138258366548543E-01
  |   2          0.134953372962410E+01         -0.871382758764106E+00          0.182162897690059E-01
  |   3         -0.325095374230076E+00          0.149138510800784E+01         -0.320421264238602E-01

  Relaxation / MD: End force evaluation.       :  max(cpu_time)    wall_clock(cpu1)
  | Time for this force evaluation             :       25.250 s          26.922 s

------------------------------------------------------------
  Molecular dynamics: Attempting to update all nuclear coordinates.

  Removing unitary transformations (pure translations, rotations) from forces on atoms.
  Atomic forces before filtering:
  | Net force on center of mass :   0.000000E+00  0.178406E-15  0.000000E+00 eV/A
  Atomic forces after filtering:
  | Net force on center of mass :   0.000000E+00  0.178406E-15  0.000000E+00 eV/A
  Cleaning translations from velocities
  | Velocity rescaling factor to preserve kinetic energy before and after cleaning:   1.00000000
------------------------------------------------------------
  Advancing structure using Born-Oppenheimer Molecular Dynamics:
  Complete information for previous time-step:
  | Time step number          :        1
  | Simulation time           :           0.100000000000000E-02 ps
  | Electronic free energy    :          -0.207848223446601E+04 eV
  | Temperature (nuclei)      :           0.328872938481944E+03 K
  | Nuclear kinetic energy    :           0.127530491335688E+00 eV
  | Total energy (el.+nuc.)   :          -0.207835470397467E+04 eV
  | Thermostat value ln(s)    :           0.348498956373086E-03
  | Thermostat momentum pi    :           0.112408203965707E-04 eV ps
  | Nose-Hoover Hamiltonian   :          -0.207835461508607E+04 eV
------------------------------------------------------------
  Atomic structure (and velocities) as used in the preceding time step:
                      x [A]             y [A]             z [A]       Atom
   atom               2.77671567        2.62310490        1.98631024  H
     velocity         -28.17773990         20.13038952        -13.61884175
   atom               1.21262243        2.62422565        1.98795118  H
     velocity          19.07500448         20.04799707        -11.95746888
   atom               2.00067168        1.99701824        2.00162150  O
     velocity           0.57345970         -2.53118261          1.61127208
------------------------------------------------------------
          Begin self-consistency loop: Re-initialization.

  Date     :  20160131, Time     :  153255.954
------------------------------------------------------------
  Mapping all atomic coordinates to central unit cell.

  Initializing the k-points
          Using symmetry for reducing the k-points
  | k-points reduced from:        8 to        8
  | Number of k-points                             :         8
  The eigenvectors in the calculations are REAL.
  | Number of basis functions in the Hamiltonian integrals :       524
  | Number of basis functions in a single unit cell        :        24
  | Consuming         15 KiB for k_phase.
  | Number of super-cells (origin) [n_cells]                     :         729
  | Number of super-cells (after PM_index) [n_cells]             :         124
  | Number of super-cells in hamiltonian [n_cells_in_hamiltonian]:         124
  | Size of matrix packed + index :       10807
  Partitioning the integration grid into batches with parallel hashing+maxmin method.
  Initializing partition tables, free-atom densities, potentials, etc. across the integration grid (initialize_grid_storage).
  | Species        1: outer_partition_radius set to              5.054417573612229 AA .
  | Species        2: outer_partition_radius set to              5.048384829883283 AA .
  | Net number of integration points:    15924
  | of which are non-zero points    :    13600
  Calculating total energy contributions from superposition of free atom densities.
  Initialize hartree_potential_storage
  Max. number of atoms included in rho_multipole:            3
  Integrating overlap matrix.
  Time summed over all CPUs for integration: real work        0.381 s, elapsed        0.423 s
  Orthonormalizing eigenvectors

  End scf reinitialization - timings           :  max(cpu_time)    wall_clock(cpu1)
  | Time for scf. reinitialization             :        1.100 s           1.116 s
  | Integration                                :        0.200 s           0.212 s
  | Grid partitioning                          :        0.110 s           0.104 s
  | Preloading free-atom quantities on grid    :        0.500 s           0.502 s
  | Free-atom superposition energy             :        0.090 s           0.092 s
  | K.-S. eigenvector reorthonormalization     :        0.000 s           0.000 s
------------------------------------------------------------
Convergence:    q app. |  density  | eigen (eV) | Etot (eV) | forces (eV/A) |       CPU time |     Clock time
  SCF    1 :  0.17E-03 |  0.17E+00 |  -0.11E+04 | -0.21E+04 |             . |        0.990 s |        1.002 s
  SCF    2 :  0.33E-03 |  0.58E-02 |   0.24E+00 |  0.31E-03 |             . |        1.190 s |        1.199 s
  SCF    3 :  0.59E-03 |  0.37E-02 |   0.35E+00 |  0.21E-03 |             . |        1.320 s |        1.329 s
  SCF    4 :  0.62E-03 |  0.14E-02 |   0.15E-01 | -0.65E-05 |             . |        2.280 s |        2.285 s
  SCF    5 :  0.42E-03 |  0.24E-03 |   0.15E-01 | -0.27E-05 |             . |        1.280 s |        1.290 s
  SCF    6 :  0.32E-03 |  0.46E-04 |  -0.20E-02 | -0.59E-06 |             . |        1.190 s |        1.191 s
  SCF    7 :  0.18E-03 |  0.28E-04 |   0.42E-02 | -0.62E-06 |             . |        1.250 s |        1.258 s
  SCF    8 :  0.16E-03 |  0.85E-05 |  -0.51E-03 |  0.64E-07 |             . |        1.540 s |        1.566 s
  SCF    9 :  0.16E-03 |  0.12E-05 |  -0.96E-04 |  0.18E-07 |      0.95E+01 |        4.190 s |        4.422 s
  SCF   10 :  0.16E-03 |  0.30E-06 |  -0.44E-04 |  0.81E-08 |      0.38E-04 |        5.580 s |        6.183 s

  Total energy components:
  | Sum of eigenvalues            :         -41.74261298 Ha       -1135.87429182 eV
  | XC energy correction          :          -9.21619963 Ha        -250.78555164 eV
  | XC potential correction       :          11.85423528 Ha         322.57015416 eV
  | Free-atom electrostatic energy:         -35.78609646 Ha        -973.78923044 eV
  | Hartree energy correction     :          -1.49293188 Ha         -40.62474343 eV
  | Entropy correction            :           0.00000000 Ha           0.00000000 eV
  | ---------------------------
  | Total energy                  :         -76.38360566 Ha       -2078.50366316 eV
  | Total energy, T -> 0          :         -76.38360566 Ha       -2078.50366316 eV  <-- do not rely on this value for anything but (periodic) metals
  | Electronic free energy        :         -76.38360566 Ha       -2078.50366316 eV

  Derived energy quantities:
  | Kinetic energy                :          76.04089488 Ha        2069.17802821 eV
  | Electrostatic energy          :        -143.20830091 Ha       -3896.89613973 eV
  | Energy correction for multipole
  | error in Hartree potential    :          -0.00311703 Ha          -0.08481883 eV
  | Sum of eigenvalues per atom                           :        -378.62476394 eV
  | Total energy (T->0) per atom                          :        -692.83455439 eV  <-- do not rely on this value for anything but (periodic) metals
  | Electronic free energy per atom                       :        -692.83455439 eV
  What follows are estimated values for band gap, HOMO, LUMO, etc.
  | They are estimated on a discrete k-point grid and not necessarily exact.
  | For converged numbers, create a DOS and/or band structure plot on a denser k-grid.

  Highest occupied state (VBM) at     -7.47809109 eV (relative to internal zero)
  | Occupation number:      2.00000000
  | K-point:       7 at    0.500000    0.500000    0.000000 (in units of recip. lattice)

  Lowest unoccupied state (CBM) at    -3.23778790 eV (relative to internal zero)
  | Occupation number:      0.00000000
  | K-point:       1 at    0.000000    0.000000    0.000000 (in units of recip. lattice)

  ESTIMATED overall HOMO-LUMO gap:      4.24030319 eV between HOMO at k-point 7 and LUMO at k-point 1
  | This appears to be an indirect band gap.
  | Smallest direct gap :      4.32532375 eV for k_point 1 at    0.000000    0.000000    0.000000 (in units of recip. lattice)
  The gap value is above 0.2 eV. Unless you are using a very sparse k-point grid,
  this system is most likely an insulator or a semiconductor.

  Self-consistency cycle converged.

  Removing unitary transformations (pure translations, rotations) from forces on atoms.
  Atomic forces before filtering:
  | Net force on center of mass :   0.582445E-03  0.418006E-02  0.321003E-03 eV/A
  Atomic forces after filtering:
  | Net force on center of mass :  -0.892031E-16  0.000000E+00  0.000000E+00 eV/A

  Energy and forces in a compact form:
  | Total energy uncorrected      :         -0.207850366316216E+04 eV
  | Total energy corrected        :         -0.207850366316216E+04 eV  <-- do not rely on this value for anything but (periodic) metals
  | Electronic free energy        :         -0.207850366316216E+04 eV
  Total atomic forces (unitary forces cleaned) [eV/Ang]:
  |   1         -0.258629571100711E+00         -0.466563198234626E+00          0.180928795698499E-01
  |   2          0.781153551837778E+00         -0.897940329699723E+00          0.371313726513203E-01
  |   3         -0.522523980737067E+00          0.136450352793435E+01         -0.552242522211702E-01

  Relaxation / MD: End force evaluation.       :  max(cpu_time)    wall_clock(cpu1)
  | Time for this force evaluation             :       21.820 s          22.857 s

------------------------------------------------------------
  Molecular dynamics: Attempting to update all nuclear coordinates.

  Removing unitary transformations (pure translations, rotations) from forces on atoms.
  Atomic forces before filtering:
  | Net force on center of mass :  -0.892031E-16  0.000000E+00  0.000000E+00 eV/A
  Atomic forces after filtering:
  | Net force on center of mass :  -0.892031E-16  0.000000E+00  0.000000E+00 eV/A
  Cleaning translations from velocities
  | Velocity rescaling factor to preserve kinetic energy before and after cleaning:   1.00000000
------------------------------------------------------------
  Advancing structure using Born-Oppenheimer Molecular Dynamics:
  Complete information for previous time-step:
  | Time step number          :        2
  | Simulation time           :           0.200000000000000E-02 ps
  | Electronic free energy    :          -0.207850366316216E+04 eV
  | Temperature (nuclei)      :           0.374130708782034E+03 K
  | Nuclear kinetic energy    :           0.145080569216131E+00 eV
  | Total energy (el.+nuc.)   :          -0.207835858259295E+04 eV
  | Thermostat value ln(s)    :           0.367432204166498E-02
  | Thermostat momentum pi    :           0.513835120650231E-04 eV ps
  | Nose-Hoover Hamiltonian   :          -0.207835756462759E+04 eV
------------------------------------------------------------
  Atomic structure (and velocities) as used in the preceding time step:
                      x [A]             y [A]             z [A]       Atom
   atom               2.74366399        2.64024687        1.97277173  H
     velocity         -34.21126277         14.87483426        -13.42120051
   atom               1.23813683        2.64008214        1.97609332  H
     velocity          29.18641898         11.53231822        -11.65346278
   atom               2.00114652        1.99493938        2.00322143  O
     velocity           0.31655819         -1.66361396          1.57966899
------------------------------------------------------------
          Begin self-consistency loop: Re-initialization.

  Date     :  20160131, Time     :  153318.812
------------------------------------------------------------
  Mapping all atomic coordinates to central unit cell.

  Initializing the k-points
          Using symmetry for reducing the k-points
  | k-points reduced from:        8 to        8
  | Number of k-points                             :         8
  The eigenvectors in the calculations are REAL.
  | Number of basis functions in the Hamiltonian integrals :       528
  | Number of basis functions in a single unit cell        :        24
  | Consuming         15 KiB for k_phase.
  | Number of super-cells (origin) [n_cells]                     :         729
  | Number of super-cells (after PM_index) [n_cells]             :         124
  | Number of super-cells in hamiltonian [n_cells_in_hamiltonian]:         124
  | Size of matrix packed + index :       10799
  Partitioning the integration grid into batches with parallel hashing+maxmin method.
  Initializing partition tables, free-atom densities, potentials, etc. across the integration grid (initialize_grid_storage).
  | Species        1: outer_partition_radius set to              5.054417573612229 AA .
  | Species        2: outer_partition_radius set to              5.048384829883283 AA .
  | Net number of integration points:    15924
  | of which are non-zero points    :    13575
  Calculating total energy contributions from superposition of free atom densities.
  Initialize hartree_potential_storage
  Max. number of atoms included in rho_multipole:            3
  Integrating overlap matrix.
  Time summed over all CPUs for integration: real work        0.219 s, elapsed        0.222 s
  Orthonormalizing eigenvectors

  End scf reinitialization - timings           :  max(cpu_time)    wall_clock(cpu1)
  | Time for scf. reinitialization             :        0.630 s           0.661 s
  | Integration                                :        0.110 s           0.111 s
  | Grid partitioning                          :        0.050 s           0.047 s
  | Preloading free-atom quantities on grid    :        0.350 s           0.355 s
  | Free-atom superposition energy             :        0.060 s           0.071 s
  | K.-S. eigenvector reorthonormalization     :        0.000 s           0.001 s
------------------------------------------------------------
Convergence:    q app. |  density  | eigen (eV) | Etot (eV) | forces (eV/A) |       CPU time |     Clock time
  SCF    1 :  0.17E-03 |  0.17E+00 |  -0.11E+04 | -0.21E+04 |             . |        0.920 s |        0.941 s
  SCF    2 :  0.35E-03 |  0.95E-02 |   0.44E+00 |  0.91E-03 |             . |        1.240 s |        1.241 s
  SCF    3 :  0.65E-03 |  0.59E-02 |   0.60E+00 |  0.55E-03 |             . |        1.670 s |        1.682 s
  SCF    4 :  0.79E-03 |  0.21E-02 |   0.52E-01 |  0.76E-05 |             . |        3.240 s |        3.250 s
  SCF    5 :  0.56E-03 |  0.35E-03 |   0.25E-01 | -0.46E-05 |             . |        1.350 s |        1.360 s
  SCF    6 :  0.47E-03 |  0.76E-04 |  -0.50E-02 | -0.61E-06 |             . |        1.190 s |        1.198 s
  SCF    7 :  0.20E-03 |  0.47E-04 |   0.59E-02 | -0.14E-05 |             . |        1.340 s |        1.346 s
  SCF    8 :  0.17E-03 |  0.13E-04 |  -0.70E-03 |  0.13E-06 |             . |        3.250 s |        3.446 s
  SCF    9 :  0.17E-03 |  0.17E-05 |  -0.10E-03 |  0.77E-08 |             . |        1.680 s |        1.709 s
  SCF   10 :  0.17E-03 |  0.77E-06 |  -0.11E-03 |  0.21E-07 |      0.98E+01 |        1.940 s |        1.940 s
  SCF   11 :  0.17E-03 |  0.24E-06 |  -0.83E-05 | -0.29E-08 |      0.43E-04 |        6.590 s |        7.401 s

  Total energy components:
  | Sum of eigenvalues            :         -41.77491075 Ha       -1136.75315880 eV
  | XC energy correction          :          -9.23245888 Ha        -251.22798858 eV
  | XC potential correction       :          11.87562805 Ha         323.15228106 eV
  | Free-atom electrostatic energy:         -35.70808676 Ha        -971.66647856 eV
  | Hartree energy correction     :          -1.54343150 Ha         -41.99890799 eV
  | Entropy correction            :           0.00000000 Ha           0.00000000 eV
  | ---------------------------
  | Total energy                  :         -76.38325984 Ha       -2078.49425287 eV
  | Total energy, T -> 0          :         -76.38325984 Ha       -2078.49425287 eV  <-- do not rely on this value for anything but (periodic) metals
  | Electronic free energy        :         -76.38325984 Ha       -2078.49425287 eV

  Derived energy quantities:
  | Kinetic energy                :          76.10266615 Ha        2070.85891018 eV
  | Electrostatic energy          :        -143.25346711 Ha       -3898.12517447 eV
  | Energy correction for multipole
  | error in Hartree potential    :          -0.00340646 Ha          -0.09269438 eV
  | Sum of eigenvalues per atom                           :        -378.91771960 eV
  | Total energy (T->0) per atom                          :        -692.83141762 eV  <-- do not rely on this value for anything but (periodic) metals
  | Electronic free energy per atom                       :        -692.83141762 eV
  What follows are estimated values for band gap, HOMO, LUMO, etc.
  | They are estimated on a discrete k-point grid and not necessarily exact.
  | For converged numbers, create a DOS and/or band structure plot on a denser k-grid.

  Highest occupied state (VBM) at     -7.53250615 eV (relative to internal zero)
  | Occupation number:      2.00000000
  | K-point:       7 at    0.500000    0.500000    0.000000 (in units of recip. lattice)

  Lowest unoccupied state (CBM) at    -3.14470337 eV (relative to internal zero)
  | Occupation number:      0.00000000
  | K-point:       1 at    0.000000    0.000000    0.000000 (in units of recip. lattice)

  ESTIMATED overall HOMO-LUMO gap:      4.38780278 eV between HOMO at k-point 7 and LUMO at k-point 1
  | This appears to be an indirect band gap.
  | Smallest direct gap :      4.47058110 eV for k_point 1 at    0.000000    0.000000    0.000000 (in units of recip. lattice)
  The gap value is above 0.2 eV. Unless you are using a very sparse k-point grid,
  this system is most likely an insulator or a semiconductor.

  Self-consistency cycle converged.

  Removing unitary transformations (pure translations, rotations) from forces on atoms.
  Atomic forces before filtering:
  | Net force on center of mass :   0.169492E-03  0.509527E-02  0.277050E-03 eV/A
  Atomic forces after filtering:
  | Net force on center of mass :   0.000000E+00  0.892031E-16  0.000000E+00 eV/A

  Energy and forces in a compact form:
  | Total energy uncorrected      :         -0.207849425286863E+04 eV
  | Total energy corrected        :         -0.207849425286863E+04 eV  <-- do not rely on this value for anything but (periodic) metals
  | Electronic free energy        :         -0.207849425286863E+04 eV
  Total atomic forces (unitary forces cleaned) [eV/Ang]:
  |   1          0.706407716847539E+00         -0.130451516270178E+00          0.125027171967387E-02
  |   2         -0.212030415411153E+00         -0.578709258272861E+00          0.363060523872447E-01
  |   3         -0.494377301436386E+00          0.709160774543039E+00         -0.375563241069186E-01

  Relaxation / MD: End force evaluation.       :  max(cpu_time)    wall_clock(cpu1)
  | Time for this force evaluation             :       24.610 s          26.185 s

------------------------------------------------------------
  Molecular dynamics: Attempting to update all nuclear coordinates.

  Removing unitary transformations (pure translations, rotations) from forces on atoms.
  Atomic forces before filtering:
  | Net force on center of mass :   0.000000E+00  0.892031E-16  0.000000E+00 eV/A
  Atomic forces after filtering:
  | Net force on center of mass :   0.000000E+00 -0.892031E-16  0.000000E+00 eV/A
  Cleaning translations from velocities
  | Velocity rescaling factor to preserve kinetic energy before and after cleaning:   1.00000000
------------------------------------------------------------
  Advancing structure using Born-Oppenheimer Molecular Dynamics:
  Complete information for previous time-step:
  | Time step number          :        3
  | Simulation time           :           0.300000000000000E-02 ps
  | Electronic free energy    :          -0.207849425286863E+04 eV
  | Temperature (nuclei)      :           0.339815893902375E+03 K
  | Nuclear kinetic energy    :           0.131773955355178E+00 eV
  | Total energy (el.+nuc.)   :          -0.207836247891327E+04 eV
  | Thermostat value ln(s)    :           0.131695470608153E-01
  | Thermostat momentum pi    :           0.957029157994521E-04 eV ps
  | Nose-Hoover Hamiltonian   :          -0.207835884909941E+04 eV
------------------------------------------------------------
  Atomic structure (and velocities) as used in the preceding time step:
                      x [A]             y [A]             z [A]       Atom
   atom               2.70835351        2.65282832        1.95949152  H
     velocity         -31.75638617         11.89227763        -13.20228658
   atom               1.27094376        2.64726994        1.96466481  H
     velocity          31.61981106          4.39399984        -11.19374806
   atom               2.00130424        1.99369395        2.00477805  O
     velocity           0.00860404         -1.02601288          1.53691633
------------------------------------------------------------
          Begin self-consistency loop: Re-initialization.

  Date     :  20160131, Time     :  153344.998
------------------------------------------------------------
  Mapping all atomic coordinates to central unit cell.

  Initializing the k-points
          Using symmetry for reducing the k-points
  | k-points reduced from:        8 to        8
  | Number of k-points                             :         8
  The eigenvectors in the calculations are REAL.
  | Number of basis functions in the Hamiltonian integrals :       532
  | Number of basis functions in a single unit cell        :        24
  | Consuming         15 KiB for k_phase.
  | Number of super-cells (origin) [n_cells]                     :         729
  | Number of super-cells (after PM_index) [n_cells]             :         124
  | Number of super-cells in hamiltonian [n_cells_in_hamiltonian]:         124
  | Size of matrix packed + index :       10780
  Partitioning the integration grid into batches with parallel hashing+maxmin method.
  Initializing partition tables, free-atom densities, potentials, etc. across the integration grid (initialize_grid_storage).
  | Species        1: outer_partition_radius set to              5.054417573612229 AA .
  | Species        2: outer_partition_radius set to              5.048384829883283 AA .
  | Net number of integration points:    15924
  | of which are non-zero points    :    13561
  Calculating total energy contributions from superposition of free atom densities.
  Initialize hartree_potential_storage
  Max. number of atoms included in rho_multipole:            3
  Integrating overlap matrix.
  Time summed over all CPUs for integration: real work        0.213 s, elapsed        0.215 s
  Orthonormalizing eigenvectors

  End scf reinitialization - timings           :  max(cpu_time)    wall_clock(cpu1)
  | Time for scf. reinitialization             :        0.610 s           0.622 s
  | Integration                                :        0.110 s           0.108 s
  | Grid partitioning                          :        0.040 s           0.041 s
  | Preloading free-atom quantities on grid    :        0.340 s           0.340 s
  | Free-atom superposition energy             :        0.060 s           0.061 s
  | K.-S. eigenvector reorthonormalization     :        0.000 s           0.000 s
------------------------------------------------------------
Convergence:    q app. |  density  | eigen (eV) | Etot (eV) | forces (eV/A) |       CPU time |     Clock time
  SCF    1 :  0.18E-03 |  0.17E+00 |  -0.11E+04 | -0.21E+04 |             . |        0.950 s |        0.968 s
  SCF    2 :  0.37E-03 |  0.84E-02 |   0.38E+00 |  0.70E-03 |             . |        1.730 s |        1.739 s
  SCF    3 :  0.68E-03 |  0.53E-02 |   0.54E+00 |  0.44E-03 |             . |        3.210 s |        3.219 s
  SCF    4 :  0.75E-03 |  0.20E-02 |   0.38E-01 |  0.77E-06 |             . |        1.380 s |        1.382 s
  SCF    5 :  0.51E-03 |  0.32E-03 |   0.20E-01 | -0.44E-05 |             . |        1.190 s |        1.200 s
  SCF    6 :  0.43E-03 |  0.65E-04 |  -0.42E-02 | -0.61E-06 |             . |        1.360 s |        1.369 s
  SCF    7 :  0.20E-03 |  0.41E-04 |   0.58E-02 | -0.11E-05 |             . |        2.790 s |        2.799 s
  SCF    8 :  0.17E-03 |  0.12E-04 |  -0.63E-03 |  0.13E-06 |             . |        1.430 s |        1.439 s
  SCF    9 :  0.17E-03 |  0.17E-05 |  -0.12E-03 |  0.24E-07 |             . |        1.330 s |        1.372 s
  SCF   10 :  0.17E-03 |  0.62E-06 |  -0.96E-04 |  0.20E-07 |      0.10E+02 |        3.360 s |        3.432 s
  SCF   11 :  0.17E-03 |  0.23E-06 |   0.26E-05 | -0.24E-08 |      0.28E-04 |        5.280 s |        5.374 s

  Total energy components:
  | Sum of eigenvalues            :         -41.80457680 Ha       -1137.56041320 eV
  | XC energy correction          :          -9.24734425 Ha        -251.63303991 eV
  | XC potential correction       :          11.89521549 Ha         323.68528234 eV
  | Free-atom electrostatic energy:         -35.63392107 Ha        -969.64832745 eV
  | Hartree energy correction     :          -1.59062439 Ha         -43.28309180 eV
  | Entropy correction            :           0.00000000 Ha           0.00000000 eV
  | ---------------------------
  | Total energy                  :         -76.38125102 Ha       -2078.43959002 eV
  | Total energy, T -> 0          :         -76.38125102 Ha       -2078.43959002 eV  <-- do not rely on this value for anything but (periodic) metals
  | Electronic free energy        :         -76.38125102 Ha       -2078.43959002 eV

  Derived energy quantities:
  | Kinetic energy                :          76.16076911 Ha        2072.43997199 eV
  | Electrostatic energy          :        -143.29467588 Ha       -3899.24652210 eV
  | Energy correction for multipole
  | error in Hartree potential    :          -0.00366595 Ha          -0.09975570 eV
  | Sum of eigenvalues per atom                           :        -379.18680440 eV
  | Total energy (T->0) per atom                          :        -692.81319667 eV  <-- do not rely on this value for anything but (periodic) metals
  | Electronic free energy per atom                       :        -692.81319667 eV
  What follows are estimated values for band gap, HOMO, LUMO, etc.
  | They are estimated on a discrete k-point grid and not necessarily exact.
  | For converged numbers, create a DOS and/or band structure plot on a denser k-grid.

  Highest occupied state (VBM) at     -7.58324950 eV (relative to internal zero)
  | Occupation number:      2.00000000
  | K-point:       7 at    0.500000    0.500000    0.000000 (in units of recip. lattice)

  Lowest unoccupied state (CBM) at    -3.07365612 eV (relative to internal zero)
  | Occupation number:      0.00000000
  | K-point:       1 at    0.000000    0.000000    0.000000 (in units of recip. lattice)

  ESTIMATED overall HOMO-LUMO gap:      4.50959338 eV between HOMO at k-point 7 and LUMO at k-point 1
  | This appears to be an indirect band gap.
  | Smallest direct gap :      4.58999182 eV for k_point 1 at    0.000000    0.000000    0.000000 (in units of recip. lattice)
  The gap value is above 0.2 eV. Unless you are using a very sparse k-point grid,
  this system is most likely an insulator or a semiconductor.

  Self-consistency cycle converged.

  Removing unitary transformations (pure translations, rotations) from forces on atoms.
  Atomic forces before filtering:
  | Net force on center of mass :  -0.326171E-03  0.511726E-02 -0.510092E-04 eV/A
  Atomic forces after filtering:
  | Net force on center of mass :  -0.178406E-15  0.000000E+00  0.557519E-17 eV/A

  Energy and forces in a compact form:
  | Total energy uncorrected      :         -0.207843959002456E+04 eV
  | Total energy corrected        :         -0.207843959002456E+04 eV  <-- do not rely on this value for anything but (periodic) metals
  | Electronic free energy        :         -0.207843959002456E+04 eV
  Total atomic forces (unitary forces cleaned) [eV/Ang]:
  |   1          0.147777500802740E+01          0.132862157547823E+00         -0.239726010494925E-01
  |   2         -0.131753646828631E+01         -0.616406455071549E-01          0.800887745582211E-02
  |   3         -0.160238539741093E+00         -0.712215120406682E-01          0.159637235936704E-01

  Relaxation / MD: End force evaluation.       :  max(cpu_time)    wall_clock(cpu1)
  | Time for this force evaluation             :       24.200 s          24.932 s

------------------------------------------------------------
  Molecular dynamics: Attempting to update all nuclear coordinates.

  Removing unitary transformations (pure translations, rotations) from forces on atoms.
  Atomic forces before filtering:
  | Net force on center of mass :  -0.178406E-15  0.000000E+00  0.557519E-17 eV/A
  Atomic forces after filtering:
  | Net force on center of mass :   0.289910E-15  0.000000E+00 -0.278760E-17 eV/A
  Cleaning translations from velocities
  | Velocity rescaling factor to preserve kinetic energy before and after cleaning:   1.00000000
------------------------------------------------------------
  Advancing structure using Born-Oppenheimer Molecular Dynamics:
  Complete information for previous time-step:
  | Time step number          :        4
  | Simulation time           :           0.400000000000000E-02 ps
  | Electronic free energy    :          -0.207843959002456E+04 eV
  | Temperature (nuclei)      :           0.201054481758081E+03 K
  | Nuclear kinetic energy    :           0.779649945118789E-01 eV
  | Total energy (el.+nuc.)   :          -0.207836162503005E+04 eV
  | Thermostat value ln(s)    :           0.252123376007690E-01
  | Thermostat momentum pi    :           0.723806551488825E-04 eV ps
  | Nose-Hoover Hamiltonian   :          -0.207835543535235E+04 eV
------------------------------------------------------------
  Final atomic structure (and velocities) as used in the preceding time step:
                      x [A]             y [A]             z [A]       Atom
   atom               2.68018038        2.66402050        1.94637928  H
     velocity         -20.98112073         11.76139323        -13.15238952
   atom               1.30134741        2.64886611        1.95371611  H
     velocity          23.96167649          1.29380068        -10.84884568
   atom               2.00116372        1.99288830        2.00629385  O
     velocity          -0.18777088         -0.82245910          1.51204451
------------------------------------------------------------

------------------------------------------------------------------------------
  Final output of selected total energy values:

  The following output summarizes some interesting total energy values
  at the end of a run (AFTER all relaxation, molecular dynamics, etc.).

  | Total energy of the DFT / Hartree-Fock s.c.f. calculation      :          -2078.439590025 eV
  | Final zero-broadening corrected energy (caution - metals only) :          -2078.439590025 eV
  | For reference only, the value of 1 Hartree used in FHI-aims is :             27.211384500 eV

  Before relying on these values, please be sure to understand exactly which
  total energy value is referred to by a given number. Different objects may
  all carry the same name 'total energy'. Definitions:

  Total energy of the DFT / Hartree-Fock s.c.f. calculation:
  | Note that this energy does not include ANY quantities calculated after the
  | s.c.f. cycle, in particular not ANY RPA, MP2, etc. many-body perturbation terms.

  Final zero-broadening corrected energy:
  | For metallic systems only, a broadening of the occupation numbers at the Fermi
  | level can be extrapolated back to zero broadening by an electron-gas inspired
  | formula. For all systems that are not real metals, this value can be
  | meaningless and should be avoided.

------------------------------------------------------------------------------
  Methods described in the following list of references were used in this FHI-aims run.
  If you publish the results, please make sure to cite these reference if they apply.
  FHI-aims is an academic code, and for our developers (often, Ph.D. students
  and postdocs), scientific credit in the community is essential.
  Thank you for helping us!

  For any use of FHI-aims, please cite:

    Volker Blum, Ralf Gehrke, Felix Hanke, Paula Havu, Ville Havu,
    Xinguo Ren, Karsten Reuter, and Matthias Scheffler
    'Ab initio molecular simulations with numeric atom-centered orbitals'
    Computer Physics Communications 180, 2175-2196 (2009)
    http://dx.doi.org/10.1016/j.cpc.2009.06.022


  For the real-space grid partitioning and parallelization used in this calculation, please cite:

    Ville Havu, Volker Blum, Paula Havu, and Matthias Scheffler,
    'Efficient O(N) integration for all-electron electronic structure calculation'
    'using numerically tabulated basis functions'
    Journal of Computational Physics 228, 8367-8379 (2009).
    http://dx.doi.org/10.1016/j.jcp.2009.08.008

  Of course, there are many other important community references, e.g., those cited in the
  above references. Our list is limited to references that describe implementations in the
  FHI-aims code. The reason is purely practical (length of this list) - please credit others as well.

------------------------------------------------------------
          Leaving FHI-aims.
          Date     :  20160131, Time     :  153409.931

          Computational steps:
          | Number of self-consistency cycles          :           59
          | Number of molecular dynamics steps         :            5
          | Number of force evaluations                :            5

          Detailed time accounting                     :  max(cpu_time)    wall_clock(cpu1)
          | Total time                                 :      117.560 s         121.476 s
          | Preparation time                           :        0.150 s           0.153 s
          | Grid partitioning                          :        0.280 s           0.279 s
          | Preloading free-atom quantities on grid    :        1.540 s           1.545 s
          | Free-atom superposition energy             :        0.330 s           0.346 s
          | Total time for integrations                :       15.630 s          15.756 s
          | Total time for solution of K.-S. equations :        0.170 s           0.104 s
          | Total time for EV reorthonormalization     :        0.010 s           0.001 s
          | Total time for density & force components  :       35.760 s          37.329 s
          | Total time for mixing & preconditioning    :       16.740 s          17.033 s
          | Total time for Hartree multipole update    :        0.540 s           0.228 s
          | Total time for Hartree multipole sum       :       46.820 s          47.680 s
          | Total time for total energy evaluation     :        0.000 s           0.005 s

          Have a nice day.
------------------------------------------------------------
