

 Parallel Execution: Process Information
 ==============================================================================
 Rank   Node Name                              NodeID   MyNodeRank  NodeMaster
    0   dingawonanke.local                        0          0          0
    1   dingawonanke.local                        0          1         -1
    2   dingawonanke.local                        0          2         -1
    3   dingawonanke.local                        0          3         -1
    4   dingawonanke.local                        0          4         -1
    5   dingawonanke.local                        0          5         -1
    6   dingawonanke.local                        0          6         -1
    7   dingawonanke.local                        0          7         -1
    8   dingawonanke.local                        0          8         -1
    9   dingawonanke.local                        0          9         -1
 ==============================================================================


May use up to 7812MB of RAM as shared memory on node 0

 *******************************************************************************
 *                                                                             *
 *  --------------------------------                                           *
 *   Amsterdam Modeling Suite (AMS)              2021.105                      *
 *  --------------------------------                                           *
 *                                               r98925 2021-11-25             *
 *                                                                             *
 *                                                                             *
 *                              =================                              *
 *                              |               |                              *
 *                              |     A M S     |                              *
 *                              |               |                              *
 *                              =================                              *
 *                                                                             *
 *                                                                             *
 *   Online information and documentation:  https://www.scm.com/support/       *
 *   E-mail:  support@scm.com   info@scm.com                                   *
 *                                                                             *
 *   Scientific publications using AMS results must be properly referenced     *
 *   See the User Manuals (or the web site) for recommended citations          *
 *   The terms and conditions of the End User License Agreement apply to       *
 *   the use of AMS, https://www.scm.com/license-terms/                        *
 *                                                                             *
 **********************  x86_64_darwin_intel / openmpi  ************************
 
 Licensed to: Dr Matt Addicoat /  Department of Chemistry and Physics, Nottingham Trent University 2023-06-06 10:08:00
 SCM User ID: u20241
  
 AMS 2021.105  RunTime: Jun06-2023 15:26:32  ShM Nodes: 1  Procs: 10

 AMS jobname: ams
 AMS jobid  : 601435878

 Start   directory: /Users/Dinga_1/OneDrive - Nottingham Trent University/Examples_ams/adf_GF/tmp.Dinga.54778.0.noindex/
 Results directory: /Users/Dinga_1/OneDrive - Nottingham Trent University/Examples_ams/adf_GF/adf_SP.results/
 Scratch directory: /Users/Dinga_1/src/ams_scratch/amstmp_ams_kid0.601435878/


 Communication costs MPI_COMM_WORLD:     -0.549 usec per message,   0.0412 usec per 8-byte item
 Communication costs for intra-node:      2.800 usec per message,   0.0388 usec per 8-byte item

 RNG seed: 534137902 -661239454 700392794 -1542728751 60333912 -1629270804 -1146627990 -131178743



                     *************************************************************************
                     *  ADF 2021.105  RunTime: Jun06-2023 15:26:35  ShM Nodes: 1  Procs: 10  *
                     *************************************************************************
  
       ****************************
       * SINGLE POINT CALCULATION *
       ****************************
 
--------
Geometry
--------
Formula: O2
Atoms
  Index Symbol   x (angstrom)   y (angstrom)   z (angstrom)
      1      O    -3.00956594    -0.86150893    -0.00000000
      2      O    -1.68634676    -0.72227649    -0.00000000
 
Total System Charge             0.00000
Bonding info available!
 
 
----------------
ADF Engine Input
----------------
 
 

 Title: *** (NO TITLE) ***

 *** adf ***



 ===========================
 A T T A C H E D   F I L E S
 ===========================
  



 ===============================
 M O D E L   P A R A M E T E R S
 ===============================
  
 DENSITY FUNCTIONAL POTENTIAL (scf)
    LDA:                               VWN                                      
    Gradient Corrections:              ---                                      

 SPIN  (restricted / unrestr.)
    Molecule:                          Restricted                               
    Fragments:                         Restricted                               

 OTHER ASPECTS
    Relativistic Corrections:          scalar (ZORA,MAPA)                       

    Nuclear Charge Density Model:      Point Charge Nuclei                      
    Core Treatment:                    Frozen Orbital(s)                        

    Hyperfine or Zeeman Interaction:   ---                                      
 WARNING: Atom coordinates do not satisfy full symmetry (probably due to orienta
 tion).


 Fragment File(s)
 ----------------
 O:
         file : /Users/Dinga_1/OneDrive - Nottingham Trent University/Examples_ams/adf_GF/adf_SP.results/t21.54347665.O
         jobid: 0
         title: Oxygen (DZ, 1s frozen)



 ===============
 G E O M E T R Y  ***  Linear Molecule  ***
 ===============
  

 ATOMS
 =====                            X Y Z                    CHARGE
                                (Angstrom)             Nucl     +Core       At.Mass
                       --------------------------    ----------------       -------
    1  O              -3.0096   -0.8615   -0.0000      8.00      6.00       15.9949
    2  O              -1.6863   -0.7223   -0.0000      8.00      6.00       15.9949


 FRAGMENTS
 =========                                     Atoms in this Fragment     Cart. coord.s (Angstrom)
                                               -------------------------------------------------------
    1  O                                                 1  O           -3.0096   -0.8615   -0.0000
    2  O                                                 2  O           -1.6863   -0.7223   -0.0000


 Interatomic Distance Matrix (Angstrom)
 --------------------------------------

   1)     0.000
   2)     1.331   0.000



 =====================================
 S Y M M E T R Y ,   E L E C T R O N S
 =====================================
  
 Symmetry: NOSYM

 Irreducible Representations, including subspecies
 -------------------------------------------------
 A


 Configuration of Valence Electrons
 ==================================
 ( determined in the SCF procedure )

 Total:   12

 Net Charge: 0 (Nuclei minus Electrons)

 Aufbau principle for MO occupations will be applied through SCF cycle no.     150
 Thereafter, the program will assign electrons to MOs that are spatially
 similar to the occupied MOs in a "reference" cycle ("KeepOrbitals").
 The reference cycle is always the PREVIOUS cycle: it will evolve with
 the SCF procedure.
1
 ***************************************************************************************************



                                      ****************************************
                                      *  B U I L D : (Fragments, Functions)  *
                                      ****************************************
  



 =======
 S F O s  ***  (Symmetrized Fragment Orbitals)  ***
 =======
  
 SFOs are linear combinations of (valence) Fragment Orbitals (FOs), such that the SFOs transform as the
 irreducible representations of the (molecular) symmetry group. Each SFO is therefore characterized by
 an irrep of the molecule and by a few (or only one) generating FOs.
 The SFOs constitute a symmetry-adapted basis for the Fock matrix. The MO eigenvector coefficients in
 this basis provide a direct interpretation of the MOs in terms of Frontier Orbital Theory.

 The SFOs are combined with auxiliary Core Functions (CFs) to ensure orthogonalization on the (frozen)
 Core Orbitals (COs). The Core-orthogonalized SFOs (CSFOs) constitute the true Fock basis.

 The FOs, and hence also the (C)SFOs are combinations of the elementary basis functions (BAS). The basis
 functions that participate in the description of the SFOs depend on the irrep. The indices of the
 involved functions are printed below for each irrep.
 (The complete list of primitive basis functions is printed in another section)

 Total nr. of (C)SFOs (summation over all irreps) :    16

 NOTE: a (C)SFO that is defined as a combination of more than one FO is usually NOT normalized.



                                       === A ===
 Nr. of SFOs :   16
 Cartesian basis functions that participate in this irrep (total number =    18) :
      1    10     2     3     4     7     5     8     6     9
     11    12    13    16    14    17    15    18

    SFO  (index         Fragment          Generating    Expansion in Fragment Orbitals
  indx  incl.CFs)   Occup   Orb.Energy   FragmentType  Coeff.   Orbital     on Fragment
 --------------------------------------------------------------------------------------
     1       3      2.000      -0.881 au  O             1.00      1 S               1
                        (     -23.977 eV)
     2       4       --         1.010 au  O             1.00      2 S               1
                        (      27.493 eV)
     3       5      1.333      -0.347 au  O             1.00      1 P:x             1
                        (      -9.443 eV)
     4       6       --         0.803 au  O             1.00      2 P:x             1
                        (      21.860 eV)
     5       7      1.333      -0.347 au  O             1.00      1 P:y             1
                        (      -9.443 eV)
     6       8       --         0.803 au  O             1.00      2 P:y             1
                        (      21.860 eV)
     7       9      1.333      -0.347 au  O             1.00      1 P:z             1
                        (      -9.443 eV)
     8      10       --         0.803 au  O             1.00      2 P:z             1
                        (      21.860 eV)
     9      11      2.000      -0.881 au  O             1.00      1 S               2
                        (     -23.977 eV)
    10      12       --         1.010 au  O             1.00      2 S               2
                        (      27.493 eV)
    11      13      1.333      -0.347 au  O             1.00      1 P:x             2
                        (      -9.443 eV)
    12      14       --         0.803 au  O             1.00      2 P:x             2
                        (      21.860 eV)
    13      15      1.333      -0.347 au  O             1.00      1 P:y             2
                        (      -9.443 eV)
    14      16       --         0.803 au  O             1.00      2 P:y             2
                        (      21.860 eV)
    15      17      1.333      -0.347 au  O             1.00      1 P:z             2
                        (      -9.443 eV)
    16      18       --         0.803 au  O             1.00      2 P:z             2
                        (      21.860 eV)



 ================================
 (Slater-type)  F U N C T I O N S  ***  (Basis and Fit)  ***
 ================================
  

 Atom Type    1  (O)
 ==============

 Valence Basis Sets:   5
 -----------------------
   1 S    7.360000
   2 S    1.700000
   2 S    2.820000
   2 P    1.300000
   2 P    3.060000

 Frozen Core Shells
 ------------------
    S:  1


 BAS: List of all Elementary Cartesian Basis Functions
 =====================================================

 The numbering in the list below (to the right of the function characteristics) is referred
 to in print-outs of MO eigenvectors and Mulliken populations in the BAS representation
 (as contrasted to the SFO representation).

 Notes:
 1. The functions are characterized by a polynomial prefactor (powers of x,y,z and r) and
    an exponential decay factor alpha.
 2. Since the basis sets are specific for an atom TYPE, the individual functions occur on
    all atoms of that type.
 3. The word 'Core' in the left margin signals that it is a Core Function (CF) : not a
    degree of freedom in the valence set, but only used to ensure orthogonalization of
    the other valence basis functions on the frozen Core Orbitals.


 (power of) X  Y  Z  R     Alpha  on Atom
            ==========     =====     ==========

 O                                    1    2
                                  ---------------------------------------------------------------------------
    Core    0  0  0  0     7.360      1   10
            0  0  0  1     1.700      2   11
            0  0  0  1     2.820      3   12
            1  0  0  0     1.300      4   13
            0  1  0  0     1.300      5   14
            0  0  1  0     1.300      6   15
            1  0  0  0     3.060      7   16
            0  1  0  0     3.060      8   17
            0  0  1  0     3.060      9   18

 Total number of charge fitting functions (nprimf)       164
 Total number of Cartesian basis functions (naos)         18
 Total number of Cartesian core functions  (ncos)          2

1
 ***************************************************************************************************



                                              ***********************
                                              *  T E C H N I C A L  *
                                              ***********************
  



 =============================================================
 P A R A L L E L I Z A T I O N  and  V E C T O R I Z A T I O N
 =============================================================
  
 Nr of parallel processes:                               10
 Maximum vector length in NumInt loops:                 128



 =====================
 S C F   U P D A T E S
 =====================
  
 Max. nr. of cycles:                               300
 Convergence criterion:                              0.0000010000
   secondary criterion:                              0.0010000000

 Mix parameter (when DIIS does not apply):           0.2000000000
 Mixed ADIIS+SDIIS will be used                  
    Max number of expansion vectors:                10
    Pure ADIIS when Max([F,P]) is above              0.1000000000
    Pure SDIIS when Max([F,P]) is below              0.0010000000
 Automatic ElectronSmearing (in case of problematic SCF convergence) disabled



 =================
 P R E C I S I O N  ***  (General: NumInt, NeglectFunctionTails, ...)  ***
 =================
  

 NumInt:           Target precision:                 4.0000000000
 -------           Initial precision:                4.0000000000
                   Min. precision (optimization):    4.0000000000

 Neglect Functions:          Basis functions:        0.1000000000E-05
 ------------------          Fit functions:          0.1000000000E-05



 ===========================
 L I N E A R   S C A L I N G
 ===========================
  

 Cut-off radii density fit:                        0.1000000000E-07
 Overlap cut-off criterion AO matrix elements:     0.1000000000E-05
 Cut-offs for Coulomb potential and fitted density:0.1000000000E-07
 Cut-off criterion for Coulomb multipole terms:    0.1000000000E-07
 Progressive Convergence parameter:                 0.000000000    
1
 ***************************************************************************************************



                                            ***************************
                                            *  C O M P U T A T I O N  *
                                            ***************************
  

 Number of elements of the density matrix on this node (used, total):        45       171



 ===========================================
 Numerical Integration : Fuzzy Cells (Becke)
 ===========================================
  
 Becke grid quality: NORMAL         
  
 Lebedev angular grid order:             min:  11 max:  23
 Nr. of radial points:                   min:  49 max:  49

 Total nr. of points:      12698
 Nr. of blocks:              100
 Block length:               127
 Nr. of dummy points:          2


 Test of Precision of the Numerical Integration Grid
 ===================================================

 Integral of the Total Core Density:                   3.99999648950870
 Relative Error:                                      -8.776E-07



 ========================
 Density Fitting (zlmFit)
 ========================
  
 ZlmFit Fit Quality: NORMAL         
  
 Max L-expansion:                        min:   5 max:   5
 Nr. of radial interpolation points:     min:  42 max:  42



 =====
 S C F  ***  ScaSCF  ***
 =====
  
 Initial density matrix is calculated as sum of fragments

 CYCLE    1
 SCF Error: norm([F,P])=      0.451748718231, max([F,P])=      0.130231648314
 orbitals (Q,E):
 ---------------
 A :1...16           ( 2.00    -1.1071)  ( 2.00    -0.7891)  ( 2.00    -0.5052)  ( 2.00    -0.4591)
                     ( 2.00    -0.4590)  ( 2.00    -0.2802)  ( 0.00    -0.2801)  ( 0.00    -0.0008)
                     ( 0.00     0.7160)  ( 0.00     0.7307)  ( 0.00     0.7309)  ( 0.00     0.9267)
                     ( 0.00     0.9978)  ( 0.00     0.9980)  ( 0.00     1.1236)  ( 0.00     2.2089)

 CYCLE    2
  SDIIS (wt  0.000): -0.0957  1.0957
 A-DIIS (wt  1.000):  0.4207  0.5793
  DIIS coefficients:  0.4207  0.5793
 SCF Error: norm([F,P])=      0.115560007723, max([F,P])=      0.049415118832
 orbitals (Q,E):
 ---------------
 A :1...7            ( 2.00    -1.1487)  ( 2.00    -0.7801)  ( 2.00    -0.4986)  ( 2.00    -0.4815)
                     ( 2.00    -0.4552)  ( 2.00    -0.2959)  ( 0.00    -0.2683)

 CYCLE    3
  SDIIS (wt  0.000): -0.0125 -0.1361  1.1486
 A-DIIS (wt  1.000):  0.0000  0.4739  0.5261
  DIIS coefficients:  0.0000  0.4739  0.5261
 SCF Error: norm([F,P])=      0.041683903478, max([F,P])=      0.018618813051
 orbitals (Q,E):
 ---------------
 A :1...7            ( 2.00    -1.1743)  ( 2.00    -0.7750)  ( 2.00    -0.4933)  ( 2.00    -0.4737)
                     ( 2.00    -0.4712)  ( 2.00    -0.2829)  ( 0.00    -0.2802)

 CYCLE    4
  SDIIS (wt  0.898):  0.0219  0.3725  0.6056
 A-DIIS (wt  0.102):  0.0000  0.4974  0.5026
  DIIS coefficients:  0.0197  0.3852  0.5951
 SCF Error: norm([F,P])=      0.029532436735, max([F,P])=      0.011058066730
 orbitals (Q,E):
 ---------------
 A :1...7            ( 2.00    -1.1653)  ( 2.00    -0.7762)  ( 2.00    -0.4971)  ( 2.00    -0.4747)
                     ( 2.00    -0.4643)  ( 2.00    -0.2853)  ( 0.00    -0.2744)

 CYCLE    5
  SDIIS (wt  0.901):  0.1609 -0.3438  0.3320  0.8509
 A-DIIS (wt  0.099):  0.0000  0.0000  0.4998  0.5002
  DIIS coefficients:  0.1449 -0.3097  0.3487  0.8161
 SCF Error: norm([F,P])=      0.020882614471, max([F,P])=      0.010831960260
 orbitals (Q,E):
 ---------------
 A :1...7            ( 2.00    -1.1667)  ( 2.00    -0.7776)  ( 2.00    -0.4986)  ( 2.00    -0.4711)
                     ( 2.00    -0.4705)  ( 2.00    -0.2817)  ( 0.00    -0.2810)

 CYCLE    6
  SDIIS (wt  0.901):  0.0743 -0.5223 -0.3600  1.0492  0.7589
 A-DIIS (wt  0.099):  0.0000  0.0000  0.0000  0.4989  0.5011
  DIIS coefficients:  0.0669 -0.4704 -0.3243  0.9945  0.7332
 SCF Error: norm([F,P])=      0.018878407706, max([F,P])=      0.011537968062
 orbitals (Q,E):
 ---------------
 A :1...7            ( 2.00    -1.1668)  ( 2.00    -0.7776)  ( 2.00    -0.4985)  ( 2.00    -0.4719)
                     ( 2.00    -0.4697)  ( 2.00    -0.2825)  ( 0.00    -0.2802)

 CYCLE    7
  SDIIS (wt  0.901):  0.0831 -0.5096 -0.2550  1.0066  2.6748 -2.0000
 A-DIIS (wt  0.099):  0.0000  0.0000  0.0000  0.4989  0.5011  0.0000
  DIIS coefficients:  0.0749 -0.4590 -0.2296  0.9562  2.4589 -1.8014
 SCF Error: norm([F,P])=      0.019422039750, max([F,P])=      0.011823553379
 orbitals (Q,E):
 ---------------
 A :1...7            ( 2.00    -1.1668)  ( 2.00    -0.7776)  ( 2.00    -0.4985)  ( 2.00    -0.4709)
                     ( 2.00    -0.4707)  ( 2.00    -0.2814)  ( 0.00    -0.2813)

 CYCLE    8
  SDIIS (wt  0.901):  0.2350 -0.8177  0.1153  0.3966  2.0196 -2.0000  1.0512
 A-DIIS (wt  0.099):  0.0000  0.0000  0.0000  0.4812  0.5010  0.0000  0.0178
  DIIS coefficients:  0.2116 -0.7365  0.1038  0.4050  1.8688 -1.8014  0.9486
 SCF Error: norm([F,P])=      0.018642624266, max([F,P])=      0.011441021182
 orbitals (Q,E):
 ---------------
 A :1...7            ( 2.00    -1.1667)  ( 2.00    -0.7775)  ( 2.00    -0.4984)  ( 2.00    -0.4763)
                     ( 2.00    -0.4653)  ( 2.00    -0.2871)  ( 0.00    -0.2755)

 CYCLE    9
  SDIIS (wt  0.000):  0.2456 -0.8468  0.1289  0.3764  1.8950 -2.0000  1.1169  0.0839
 A-DIIS (wt  1.000):  0.0000  0.0000  0.0000  0.1664  0.4198  0.0000  0.3315  0.0822
  DIIS coefficients:  0.0000  0.0000  0.0000  0.1664  0.4198  0.0000  0.3315  0.0822
 SCF Error: norm([F,P])=      0.023066114907, max([F,P])=      0.013814916427
 orbitals (Q,E):
 ---------------
 A :1...7            ( 2.00    -1.1654)  ( 2.00    -0.7764)  ( 2.00    -0.4973)  ( 2.00    -0.4697)
                     ( 2.00    -0.4696)  ( 2.00    -0.2801)  ( 0.00    -0.2800)

 CYCLE   10
  SDIIS (wt  0.938):  0.0587 -0.2663 -0.0200 -0.3525  3.0000 -0.8017  0.6319 -2.0000  0.7498
 A-DIIS (wt  0.062):  0.0000  0.0000  0.0000  0.0000  0.4841 -0.0000  0.4825  0.0000  0.0334
  DIIS coefficients:  0.0550 -0.2497 -0.0187 -0.3305  2.8433 -0.7518  0.6226 -1.8754  0.7052
 SCF Error: norm([F,P])=      0.016941916668, max([F,P])=      0.007166944612
 orbitals (Q,E):
 ---------------
 A :1...7            ( 2.00    -1.1668)  ( 2.00    -0.7776)  ( 2.00    -0.4985)  ( 2.00    -0.4777)
                     ( 2.00    -0.4640)  ( 2.00    -0.2886)  ( 0.00    -0.2742)

 CYCLE   11
  SDIIS (wt  0.000):  0.4095  0.3688  0.1426  0.0791
 A-DIIS (wt  1.000):  0.2896  0.4937  0.0000  0.2166
  DIIS coefficients:  0.2896  0.4937  0.0000  0.2166
 SCF Error: norm([F,P])=      0.024995004586, max([F,P])=      0.014989329271
 orbitals (Q,E):
 ---------------
 A :1...7            ( 2.00    -1.1649)  ( 2.00    -0.7760)  ( 2.00    -0.4969)  ( 2.00    -0.4693)
                     ( 2.00    -0.4692)  ( 2.00    -0.2796)  ( 0.00    -0.2796)

 CYCLE   12
  SDIIS (wt  0.936): -0.2256 -0.2708 -0.0852  3.0000 -0.3929  0.4631 -2.0000  0.6446 -0.0887 -0.0445
 A-DIIS (wt  0.064):  0.0000  0.0000  0.0000  0.3701  0.0000  0.3967  0.0000  0.1280  0.0000  0.1052
  DIIS coefficients: -0.2112 -0.2535 -0.0798  2.8323 -0.3679  0.4588 -1.8724  0.6117 -0.0830 -0.0350
 SCF Error: norm([F,P])=      0.018881335902, max([F,P])=      0.007313999426
 orbitals (Q,E):
 ---------------
 A :1...7            ( 2.00    -1.1667)  ( 2.00    -0.7775)  ( 2.00    -0.4984)  ( 2.00    -0.4780)
                     ( 2.00    -0.4635)  ( 2.00    -0.2889)  ( 0.00    -0.2737)

 CYCLE   13
  SDIIS (wt  0.000): -2.0000  0.7297  2.2703
 A-DIIS (wt  1.000):  0.0000  0.5026  0.4974
  DIIS coefficients:  0.0000  0.5026  0.4974
 SCF Error: norm([F,P])=      0.025390205374, max([F,P])=      0.015529248951
 orbitals (Q,E):
 ---------------
 A :1...7            ( 2.00    -1.1659)  ( 2.00    -0.7769)  ( 2.00    -0.4978)  ( 2.00    -0.4877)
                     ( 2.00    -0.4525)  ( 2.00    -0.2991)  ( 0.00    -0.2621)

 CYCLE   14
  SDIIS (wt  0.000): -1.9216  0.5489  2.1037  0.2690
 A-DIIS (wt  1.000):  0.0000  0.2850  0.2802  0.4348
  DIIS coefficients:  0.0000  0.2850  0.2802  0.4348
 SCF Error: norm([F,P])=      0.032464952580, max([F,P])=      0.013178384901
 orbitals (Q,E):
 ---------------
 A :1...7            ( 2.00    -1.1654)  ( 2.00    -0.7764)  ( 2.00    -0.4973)  ( 2.00    -0.4696)
                     ( 2.00    -0.4696)  ( 2.00    -0.2801)  ( 0.00    -0.2800)

 CYCLE   15
  SDIIS (wt  0.928): -1.6602  0.4830  1.8224  0.1628  0.1921
 A-DIIS (wt  0.072):  0.0000  0.4361  0.0988  0.0000  0.4651
  DIIS coefficients: -1.5413  0.4796  1.6989  0.1512  0.2116
 SCF Error: norm([F,P])=      0.020517094694, max([F,P])=      0.008092320793
 orbitals (Q,E):
 ---------------
 A :1...7            ( 2.00    -1.1664)  ( 2.00    -0.7772)  ( 2.00    -0.4982)  ( 2.00    -0.4730)
                     ( 2.00    -0.4679)  ( 2.00    -0.2837)  ( 0.00    -0.2783)

 CYCLE   16
  SDIIS (wt  0.000): -0.2585  0.7978 -2.0000  0.3140 -0.0513 -0.3818 -1.7232  2.3403  1.9626
 A-DIIS (wt  1.000):  0.2233  0.1367  0.2434  0.0000  0.3383  0.0000  0.0000  0.0000  0.0583
  DIIS coefficients:  0.2233  0.1367  0.2434  0.0000  0.3383  0.0000  0.0000  0.0000  0.0583
 SCF Error: norm([F,P])=      0.027432001686, max([F,P])=      0.010215873614
 orbitals (Q,E):
 ---------------
 A :1...7            ( 2.00    -1.1662)  ( 2.00    -0.7771)  ( 2.00    -0.4980)  ( 2.00    -0.4703)
                     ( 2.00    -0.4703)  ( 2.00    -0.2808)  ( 0.00    -0.2808)

 CYCLE   17
  SDIIS (wt  0.000): -0.0493  0.7694 -2.0000 -0.5738 -0.0382  0.3535 -1.6524  2.2525  1.8728  0.0655
 A-DIIS (wt  1.000):  0.2197  0.0000  0.3533  0.0000  0.2052  0.0000  0.0000  0.0000  0.0000  0.2218
  DIIS coefficients:  0.2197  0.0000  0.3533  0.0000  0.2052  0.0000  0.0000  0.0000  0.0000  0.2218
 SCF Error: norm([F,P])=      0.020444513370, max([F,P])=      0.010927701607
 orbitals (Q,E):
 ---------------
 A :1...7            ( 2.00    -1.1663)  ( 2.00    -0.7771)  ( 2.00    -0.4981)  ( 2.00    -0.4704)
                     ( 2.00    -0.4704)  ( 2.00    -0.2809)  ( 0.00    -0.2809)

 CYCLE   18
  SDIIS (wt  0.904):  0.2767 -2.0000 -0.3384 -0.1990  0.0672 -1.4599  2.2121  1.8317  0.1026  0.5069
 A-DIIS (wt  0.096):  0.0000  0.4311  0.1785  0.2803  0.0000  0.0000  0.0000  0.0000  0.1100  0.0000
  DIIS coefficients:  0.2501 -1.7662 -0.2887 -0.1529  0.0607 -1.3195  1.9993  1.6556  0.1033  0.4581
 SCF Error: norm([F,P])=      0.018036409252, max([F,P])=      0.010521184878
 orbitals (Q,E):
 ---------------
 A :1...7            ( 2.00    -1.1669)  ( 2.00    -0.7777)  ( 2.00    -0.4986)  ( 2.00    -0.4887)
                     ( 2.00    -0.4531)  ( 2.00    -0.3002)  ( 0.00    -0.2627)

 CYCLE   19
  SDIIS (wt  0.000): -0.7413  0.6274  0.6389  0.1347  0.4389 -0.0987
 A-DIIS (wt  1.000):  0.0000  0.4097  0.0468  0.1988 -0.0000  0.3447
  DIIS coefficients:  0.0000  0.4097  0.0468  0.1988 -0.0000  0.3447
 SCF Error: norm([F,P])=      0.033828546233, max([F,P])=      0.013507300296
 orbitals (Q,E):
 ---------------
 A :1...7            ( 2.00    -1.1654)  ( 2.00    -0.7764)  ( 2.00    -0.4973)  ( 2.00    -0.4697)
                     ( 2.00    -0.4696)  ( 2.00    -0.2801)  ( 0.00    -0.2800)

 CYCLE   20
  SDIIS (wt  0.905): -0.0735  0.8731 -1.1011  0.7081  0.8036  0.2757  0.7722 -0.5598 -0.6984
 A-DIIS (wt  0.095):  0.0000  0.0000  0.0000  0.2561  0.0306  0.0000  0.3706  0.0000  0.3428
  DIIS coefficients: -0.0665  0.7904 -0.9968  0.6653  0.7303  0.2496  0.7341 -0.5067 -0.5997
 SCF Error: norm([F,P])=      0.019301492008, max([F,P])=      0.010383802138
 orbitals (Q,E):
 ---------------
 A :1...7            ( 2.00    -1.1669)  ( 2.00    -0.7777)  ( 2.00    -0.4986)  ( 2.00    -0.4845)
                     ( 2.00    -0.4574)  ( 2.00    -0.2957)  ( 0.00    -0.2673)

 CYCLE   21
  SDIIS (wt  0.000):  1.1643 -0.1643
 A-DIIS (wt  1.000):  0.5278  0.4722
  DIIS coefficients:  0.5278  0.4722
 SCF Error: norm([F,P])=      0.030279181846, max([F,P])=      0.015219519838
 orbitals (Q,E):
 ---------------
 A :1...7            ( 2.00    -1.1654)  ( 2.00    -0.7764)  ( 2.00    -0.4973)  ( 2.00    -0.4921)
                     ( 2.00    -0.4473)  ( 2.00    -0.3037)  ( 0.00    -0.2565)

 CYCLE   22
  SDIIS (wt  0.000): -0.0563  1.1601 -1.1156  0.1729  1.0293 -0.1904
 A-DIIS (wt  1.000):  0.0000  0.1044  0.0000  0.4814  0.0000  0.4141
  DIIS coefficients:  0.0000  0.1044  0.0000  0.4814  0.0000  0.4141
 SCF Error: norm([F,P])=      0.044956914535, max([F,P])=      0.024755143483
 orbitals (Q,E):
 ---------------
 A :1...7            ( 2.00    -1.1658)  ( 2.00    -0.7767)  ( 2.00    -0.4977)  ( 2.00    -0.4701)
                     ( 2.00    -0.4699)  ( 2.00    -0.2805)  ( 0.00    -0.2803)

 CYCLE   23
  SDIIS (wt  0.000):  0.0810  1.3611 -1.5138  0.2100  1.2940 -0.3068 -0.1255
 A-DIIS (wt  1.000):  0.0000  0.2483  0.0000  0.4141  0.0000  0.1664  0.1713
  DIIS coefficients:  0.0000  0.2483  0.0000  0.4141  0.0000  0.1664  0.1713
 SCF Error: norm([F,P])=      0.048165723178, max([F,P])=      0.022843446526
 orbitals (Q,E):
 ---------------
 A :1...7            ( 2.00    -1.1661)  ( 2.00    -0.7770)  ( 2.00    -0.4979)  ( 2.00    -0.4703)
                     ( 2.00    -0.4702)  ( 2.00    -0.2807)  ( 0.00    -0.2806)

 CYCLE   24
  SDIIS (wt  0.000):  0.8822 -0.1036  1.6011 -1.0809  0.3028  0.7141 -0.5340 -0.6812 -0.1006
 A-DIIS (wt  1.000):  0.1791  0.0000  0.3681  0.0000  0.3452  0.0000  0.0000  0.0000  0.1075
  DIIS coefficients:  0.1791  0.0000  0.3681  0.0000  0.3452  0.0000  0.0000  0.0000  0.1075
 SCF Error: norm([F,P])=      0.040544592550, max([F,P])=      0.018545717701
 orbitals (Q,E):
 ---------------
 A :1...7            ( 2.00    -1.1661)  ( 2.00    -0.7769)  ( 2.00    -0.4979)  ( 2.00    -0.4702)
                     ( 2.00    -0.4702)  ( 2.00    -0.2807)  ( 0.00    -0.2807)

 CYCLE   25
  SDIIS (wt  0.933):  0.3378  0.2995  1.4899 -1.0643 -0.0600  0.5834 -0.4097 -1.3019 -1.8745  3.0000
 A-DIIS (wt  0.067):  0.0000  0.0541  0.3596  0.0000  0.2748  0.0000  0.0000  0.0000  0.0000  0.3115
  DIIS coefficients:  0.3152  0.2831  1.4144 -0.9932 -0.0377  0.5444 -0.3824 -1.2149 -1.7493  2.8204
 SCF Error: norm([F,P])=      0.019237460518, max([F,P])=      0.007614476210
 orbitals (Q,E):
 ---------------
 A :1...7            ( 2.00    -1.1669)  ( 2.00    -0.7776)  ( 2.00    -0.4985)  ( 2.00    -0.4818)
                     ( 2.00    -0.4599)  ( 2.00    -0.2930)  ( 0.00    -0.2699)

 CYCLE   26
  SDIIS (wt  0.000):  0.0323 -0.1071 -0.8455  3.0000 -1.0796
 A-DIIS (wt  1.000):  0.4978  0.0000  0.0000  0.0000  0.5022
  DIIS coefficients:  0.4978  0.0000  0.0000  0.0000  0.5022
 SCF Error: norm([F,P])=      0.028023656096, max([F,P])=      0.012586352561
 orbitals (Q,E):
 ---------------
 A :1...7            ( 2.00    -1.1645)  ( 2.00    -0.7756)  ( 2.00    -0.4966)  ( 2.00    -0.4848)
                     ( 2.00    -0.4530)  ( 2.00    -0.2959)  ( 0.00    -0.2624)

 CYCLE   27
  SDIIS (wt  0.000):  0.4110  0.1553  0.0263  0.4681  0.5733 -0.6012 -0.0328
 A-DIIS (wt  1.000):  0.2883  0.1481  0.4509  0.0417  0.0000  0.0000  0.0710
  DIIS coefficients:  0.2883  0.1481  0.4509  0.0417  0.0000  0.0000  0.0710
 SCF Error: norm([F,P])=      0.082801484472, max([F,P])=      0.039441856097
 orbitals (Q,E):
 ---------------
 A :1...7            ( 2.00    -1.1654)  ( 2.00    -0.7764)  ( 2.00    -0.4973)  ( 2.00    -0.4697)
                     ( 2.00    -0.4695)  ( 2.00    -0.2801)  ( 0.00    -0.2799)

 CYCLE   28
  SDIIS (wt  0.000):  0.6155  0.2706 -0.7888 -0.0071 -0.6623 -1.4145  3.0000 -0.3194 -0.0857  0.3918
 A-DIIS (wt  1.000):  0.0000  0.2557  0.0000  0.0000  0.0000  0.0744  0.2622  0.0000  0.0000  0.4077
  DIIS coefficients:  0.0000  0.2557  0.0000  0.0000  0.0000  0.0744  0.2622  0.0000  0.0000  0.4077
 SCF Error: norm([F,P])=      0.023007854253, max([F,P])=      0.011175306677
 orbitals (Q,E):
 ---------------
 A :1...7            ( 2.00    -1.1665)  ( 2.00    -0.7773)  ( 2.00    -0.4982)  ( 2.00    -0.4706)
                     ( 2.00    -0.4705)  ( 2.00    -0.2811)  ( 0.00    -0.2810)

 CYCLE   29
  SDIIS (wt  0.000): -1.6839 -1.1592 -0.9050 -0.0886 -0.4527  3.0000 -0.0122  0.9024 -0.8721  2.2714
 A-DIIS (wt  1.000):  0.1758  0.0000  0.0000  0.0000  0.0000  0.3832  0.0000  0.0000  0.3164  0.1246
  DIIS coefficients:  0.1758  0.0000  0.0000  0.0000  0.0000  0.3832  0.0000  0.0000  0.3164  0.1246
 SCF Error: norm([F,P])=      0.029986510743, max([F,P])=      0.012161261154
 orbitals (Q,E):
 ---------------
 A :1...7            ( 2.00    -1.1663)  ( 2.00    -0.7772)  ( 2.00    -0.4981)  ( 2.00    -0.4704)
                     ( 2.00    -0.4704)  ( 2.00    -0.2809)  ( 0.00    -0.2809)

 CYCLE   30
  SDIIS (wt  0.932): -0.7143 -0.4159 -0.7555 -1.4132  3.0000  0.0431 -0.0865 -0.6814 -0.8934  2.9172
 A-DIIS (wt  0.068):  0.1235  0.0000  0.0000  0.0000  0.4510  0.0000  0.0000  0.0680  0.0000  0.3575
  DIIS coefficients: -0.6576 -0.3877 -0.7044 -1.3175  2.8274  0.0402 -0.0807 -0.6307 -0.8329  2.7439
 SCF Error: norm([F,P])=      0.018017642131, max([F,P])=      0.007704707165
 orbitals (Q,E):
 ---------------
 A :1...7            ( 2.00    -1.1668)  ( 2.00    -0.7776)  ( 2.00    -0.4985)  ( 2.00    -0.4744)
                     ( 2.00    -0.4672)  ( 2.00    -0.2852)  ( 0.00    -0.2776)

 CYCLE   31
  SDIIS (wt  0.000):  0.0656  0.1413  0.5922  0.9807 -1.1379  0.3581
 A-DIIS (wt  1.000):  0.4903  0.0000  0.0000  0.0000  0.5003  0.0094
  DIIS coefficients:  0.4903  0.0000  0.0000  0.0000  0.5003  0.0094
 SCF Error: norm([F,P])=      0.021839436304, max([F,P])=      0.009343964448
 orbitals (Q,E):
 ---------------
 A :1...7            ( 2.00    -1.1650)  ( 2.00    -0.7760)  ( 2.00    -0.4970)  ( 2.00    -0.4693)
                     ( 2.00    -0.4693)  ( 2.00    -0.2797)  ( 0.00    -0.2797)

 CYCLE   32
  SDIIS (wt  0.918): -0.8914 -1.7535  3.0000 -0.6223 -0.4160 -0.4341 -1.8844  3.0000  0.4010  0.6007
 A-DIIS (wt  0.082):  0.0000  0.0000  0.2350  0.0000  0.0000  0.0460  0.0000  0.3828  0.1538  0.1824
  DIIS coefficients: -0.8183 -1.6096  2.7731 -0.5712 -0.3818 -0.3947 -1.7298  2.7853  0.3807  0.5663
 SCF Error: norm([F,P])=      0.017896615972, max([F,P])=      0.009122674547
 orbitals (Q,E):
 ---------------
 A :1...7            ( 2.00    -1.1667)  ( 2.00    -0.7775)  ( 2.00    -0.4984)  ( 2.00    -0.4771)
                     ( 2.00    -0.4644)  ( 2.00    -0.2880)  ( 0.00    -0.2746)

 CYCLE   33
  SDIIS (wt  0.000): -0.0687  0.6103  0.4584
 A-DIIS (wt  1.000):  0.0000  0.4997  0.5003
  DIIS coefficients:  0.0000  0.4997  0.5003
 SCF Error: norm([F,P])=      0.023841889212, max([F,P])=      0.014198157679
 orbitals (Q,E):
 ---------------
 A :1...7            ( 2.00    -1.1659)  ( 2.00    -0.7768)  ( 2.00    -0.4978)  ( 2.00    -0.4716)
                     ( 2.00    -0.4685)  ( 2.00    -0.2822)  ( 0.00    -0.2789)

 CYCLE   34
  SDIIS (wt  0.000):  0.0582  0.4945  0.3151  0.1322
 A-DIIS (wt  1.000):  0.1069  0.3875  0.3533  0.1522
  DIIS coefficients:  0.1069  0.3875  0.3533  0.1522
 SCF Error: norm([F,P])=      0.026558476165, max([F,P])=      0.009658130078
 orbitals (Q,E):
 ---------------
 A :1...7            ( 2.00    -1.1659)  ( 2.00    -0.7768)  ( 2.00    -0.4977)  ( 2.00    -0.4700)
                     ( 2.00    -0.4700)  ( 2.00    -0.2805)  ( 0.00    -0.2805)

 CYCLE   35
  SDIIS (wt  0.916): -0.6091 -0.2501 -0.5384 -0.2564  3.0000  1.7389  0.1914 -1.9613 -1.4073  1.0923
 A-DIIS (wt  0.084):  0.0000  0.0000  0.0000  0.0000  0.3424  0.3446  0.2688  0.0000  0.0000  0.0443
  DIIS coefficients: -0.5579 -0.2291 -0.4932 -0.2348  2.7768  1.6218  0.1979 -1.7966 -1.2891  1.0043
 SCF Error: norm([F,P])=      0.017222197775, max([F,P])=      0.009315135609
 orbitals (Q,E):
 ---------------
 A :1...7            ( 2.00    -1.1668)  ( 2.00    -0.7776)  ( 2.00    -0.4985)  ( 2.00    -0.4783)
                     ( 2.00    -0.4634)  ( 2.00    -0.2893)  ( 0.00    -0.2736)

 CYCLE   36
  SDIIS (wt  0.000):  0.3722  0.1461  0.0375  0.3289  0.1153
 A-DIIS (wt  1.000): -0.0000  0.0411  0.0000  0.4643  0.4946
  DIIS coefficients: -0.0000  0.0411  0.0000  0.4643  0.4946
 SCF Error: norm([F,P])=      0.025157796675, max([F,P])=      0.015735930789
 orbitals (Q,E):
 ---------------
 A :1...7            ( 2.00    -1.1653)  ( 2.00    -0.7763)  ( 2.00    -0.4972)  ( 2.00    -0.4696)
                     ( 2.00    -0.4695)  ( 2.00    -0.2800)  ( 0.00    -0.2800)

 CYCLE   37
  SDIIS (wt  0.935): -0.1111  1.6776 -0.0413  1.2609  0.0507 -2.0000 -2.0000  2.5927 -0.1035 -0.3259
 A-DIIS (wt  0.065):  0.0000  0.0000  0.3925  0.0000  0.2418  0.0000  0.0000  0.0000  0.0000  0.3657
  DIIS coefficients: -0.1039  1.5684 -0.0131  1.1788  0.0631 -1.8697 -1.8697  2.4238 -0.0968 -0.2809
 SCF Error: norm([F,P])=      0.017373715540, max([F,P])=      0.007447799871
 orbitals (Q,E):
 ---------------
 A :1...7            ( 2.00    -1.1667)  ( 2.00    -0.7775)  ( 2.00    -0.4984)  ( 2.00    -0.4838)
                     ( 2.00    -0.4578)  ( 2.00    -0.2950)  ( 0.00    -0.2676)

 CYCLE   38
  SDIIS (wt  0.000):  2.5724  0.4276 -2.0000
 A-DIIS (wt  1.000):  0.0000  0.5039  0.4961
  DIIS coefficients:  0.0000  0.5039  0.4961
 SCF Error: norm([F,P])=      0.029779054880, max([F,P])=      0.018937635440
 orbitals (Q,E):
 ---------------
 A :1...7            ( 2.00    -1.1655)  ( 2.00    -0.7765)  ( 2.00    -0.4974)  ( 2.00    -0.4876)
                     ( 2.00    -0.4519)  ( 2.00    -0.2990)  ( 0.00    -0.2614)

 CYCLE   39
  SDIIS (wt  0.000):  2.5463  0.2396 -2.0000  0.2140
 A-DIIS (wt  1.000):  0.2812  0.2784  0.0000  0.4404
  DIIS coefficients:  0.2812  0.2784  0.0000  0.4404
 SCF Error: norm([F,P])=      0.031667275248, max([F,P])=      0.012952062674
 orbitals (Q,E):
 ---------------
 A :1...7            ( 2.00    -1.1654)  ( 2.00    -0.7764)  ( 2.00    -0.4973)  ( 2.00    -0.4697)
                     ( 2.00    -0.4696)  ( 2.00    -0.2801)  ( 0.00    -0.2800)

 CYCLE   40
  SDIIS (wt  0.933): -0.0800  0.5476 -0.5339  0.7906  3.0000  1.1137 -0.7143 -0.7055 -0.9949 -1.4233
 A-DIIS (wt  0.067):  0.0000  0.2408  0.0000  0.0000  0.1696  0.0000  0.3406  0.0000  0.0000  0.2490
  DIIS coefficients: -0.0746  0.5270 -0.4980  0.7373  2.8093  1.0387 -0.6432 -0.6580 -0.9279 -1.3107
 SCF Error: norm([F,P])=      0.019150847327, max([F,P])=      0.007669384180
 orbitals (Q,E):
 ---------------
 A :1...7            ( 2.00    -1.1669)  ( 2.00    -0.7777)  ( 2.00    -0.4986)  ( 2.00    -0.4876)
                     ( 2.00    -0.4543)  ( 2.00    -0.2990)  ( 0.00    -0.2640)

 CYCLE   41
  SDIIS (wt  0.000): -0.5931 -0.0125  0.7978  0.8078
 A-DIIS (wt  1.000):  0.0000  0.5007  0.0000  0.4993
  DIIS coefficients:  0.0000  0.5007  0.0000  0.4993
 SCF Error: norm([F,P])=      0.032901259561, max([F,P])=      0.017129398227
 orbitals (Q,E):
 ---------------
 A :1...7            ( 2.00    -1.1644)  ( 2.00    -0.7755)  ( 2.00    -0.4965)  ( 2.00    -0.4715)
                     ( 2.00    -0.4661)  ( 2.00    -0.2819)  ( 0.00    -0.2763)

 CYCLE   42
  SDIIS (wt  0.930): -0.1693  0.0550  0.4977  0.4102  0.2064
 A-DIIS (wt  0.070):  0.3388  0.0000  0.3273  0.0000  0.3339
  DIIS coefficients: -0.1338  0.0512  0.4858  0.3816  0.2153
 SCF Error: norm([F,P])=      0.021055925079, max([F,P])=      0.007910499610
 orbitals (Q,E):
 ---------------
 A :1...7            ( 2.00    -1.1660)  ( 2.00    -0.7769)  ( 2.00    -0.4978)  ( 2.00    -0.4750)
                     ( 2.00    -0.4653)  ( 2.00    -0.2857)  ( 0.00    -0.2755)

 CYCLE   43
  SDIIS (wt  0.000):  0.0138  2.6666 -0.9662  1.5310 -1.3322 -0.2300 -1.1846  0.1444  0.3572
 A-DIIS (wt  1.000):  0.0000  0.0000  0.3683  0.0704  0.0000  0.4682  0.0000  0.0000  0.0931
  DIIS coefficients:  0.0000  0.0000  0.3683  0.0704  0.0000  0.4682  0.0000  0.0000  0.0931
 SCF Error: norm([F,P])=      0.038023071918, max([F,P])=      0.017159149083
 orbitals (Q,E):
 ---------------
 A :1...7            ( 2.00    -1.1665)  ( 2.00    -0.7773)  ( 2.00    -0.4982)  ( 2.00    -0.4706)
                     ( 2.00    -0.4705)  ( 2.00    -0.2811)  ( 0.00    -0.2810)

 CYCLE   44
  SDIIS (wt  0.900):  0.9221  2.2046  0.0510 -2.0000 -0.5519  0.0970 -0.1086 -0.1469 -0.1582  0.6908
 A-DIIS (wt  0.100):  0.3751  0.0000  0.2150  0.0000  0.0000  0.0358  0.0000  0.0000  0.0000  0.3741
  DIIS coefficients:  0.8673  1.9839  0.0675 -1.7997 -0.4966  0.0909 -0.0977 -0.1322 -0.1423  0.6591
 SCF Error: norm([F,P])=      0.017995249382, max([F,P])=      0.010913005964
 orbitals (Q,E):
 ---------------
 A :1...7            ( 2.00    -1.1669)  ( 2.00    -0.7777)  ( 2.00    -0.4986)  ( 2.00    -0.4766)
                     ( 2.00    -0.4652)  ( 2.00    -0.2874)  ( 0.00    -0.2755)

 CYCLE   45
  SDIIS (wt  0.000):  0.2712 -0.4798 -0.0874 -1.2616 -0.0169  0.0461  1.6075  0.9210
 A-DIIS (wt  1.000):  0.0000  0.0000  0.2251  0.0000  0.0865  0.0000  0.3665  0.3219
  DIIS coefficients:  0.0000  0.0000  0.2251  0.0000  0.0865  0.0000  0.3665  0.3219
 SCF Error: norm([F,P])=      0.023731996076, max([F,P])=      0.012529358761
 orbitals (Q,E):
 ---------------
 A :1...7            ( 2.00    -1.1657)  ( 2.00    -0.7766)  ( 2.00    -0.4976)  ( 2.00    -0.4699)
                     ( 2.00    -0.4699)  ( 2.00    -0.2803)  ( 0.00    -0.2803)

 CYCLE   46
  SDIIS (wt  0.000): -1.6119  1.5725 -1.1398  0.1955 -2.0000  0.7062  0.4771  0.9652  1.1641  0.6712
 A-DIIS (wt  1.000):  0.3785  0.0000  0.0000  0.3616  0.0000  0.0000  0.0000  0.1848  0.0000  0.0750
  DIIS coefficients:  0.3785  0.0000  0.0000  0.3616  0.0000  0.0000  0.0000  0.1848  0.0000  0.0750
 SCF Error: norm([F,P])=      0.024381791177, max([F,P])=      0.013708960714
 orbitals (Q,E):
 ---------------
 A :1...7            ( 2.00    -1.1665)  ( 2.00    -0.7773)  ( 2.00    -0.4983)  ( 2.00    -0.4706)
                     ( 2.00    -0.4706)  ( 2.00    -0.2811)  ( 0.00    -0.2811)

 CYCLE   47
  SDIIS (wt  0.899): -1.4316 -0.8521  0.2599  1.0597 -0.0298 -0.2735  1.2124 -0.8575 -0.0065  1.9190
 A-DIIS (wt  0.101):  0.0000  0.0000  0.0000  0.0000  0.2122  0.0000  0.4690  0.0000  0.0000  0.3188
  DIIS coefficients: -1.2877 -0.7665  0.2338  0.9532 -0.0055 -0.2460  1.1377 -0.7713 -0.0059  1.7581
 SCF Error: norm([F,P])=      0.018133063223, max([F,P])=      0.010952140732
 orbitals (Q,E):
 ---------------
 A :1...7            ( 2.00    -1.1669)  ( 2.00    -0.7776)  ( 2.00    -0.4985)  ( 2.00    -0.4858)
                     ( 2.00    -0.4559)  ( 2.00    -0.2972)  ( 0.00    -0.2657)

 CYCLE   48
  SDIIS (wt  0.000): -0.7301 -0.1019  1.2864  0.5455
 A-DIIS (wt  1.000):  0.0000  0.0000  0.5023  0.4977
  DIIS coefficients:  0.0000  0.0000  0.5023  0.4977
 SCF Error: norm([F,P])=      0.031358390492, max([F,P])=      0.012115399498
 orbitals (Q,E):
 ---------------
 A :1...7            ( 2.00    -1.1647)  ( 2.00    -0.7758)  ( 2.00    -0.4967)  ( 2.00    -0.4786)
                     ( 2.00    -0.4595)  ( 2.00    -0.2895)  ( 0.00    -0.2693)

 CYCLE   49
  SDIIS (wt  0.000): -0.1213  0.0645  0.5292  0.2754  0.2523
 A-DIIS (wt  1.000):  0.4158  0.0234  0.0000  0.0974  0.4634
  DIIS coefficients:  0.4158  0.0234  0.0000  0.0974  0.4634
 SCF Error: norm([F,P])=      0.025098253951, max([F,P])=      0.009941231443
 orbitals (Q,E):
 ---------------
 A :1...7            ( 2.00    -1.1655)  ( 2.00    -0.7765)  ( 2.00    -0.4974)  ( 2.00    -0.4697)
                     ( 2.00    -0.4697)  ( 2.00    -0.2802)  ( 0.00    -0.2801)

 CYCLE   50
  SDIIS (wt  0.000): -2.0000  0.2384  0.5529  3.0000  1.6120  0.3216 -1.9651  0.4210 -0.1838 -0.9970
 A-DIIS (wt  1.000):  0.0000  0.1978  0.0000  0.4543  0.0000  0.0000  0.3299  0.0000  0.0000  0.0180
  DIIS coefficients:  0.0000  0.1978  0.0000  0.4543  0.0000  0.0000  0.3299  0.0000  0.0000  0.0180
 SCF Error: norm([F,P])=      0.025287311086, max([F,P])=      0.012097579585
 orbitals (Q,E):
 ---------------
 A :1...7            ( 2.00    -1.1660)  ( 2.00    -0.7769)  ( 2.00    -0.4978)  ( 2.00    -0.4701)
                     ( 2.00    -0.4701)  ( 2.00    -0.2806)  ( 0.00    -0.2806)

 CYCLE   51
  SDIIS (wt  0.932): -0.0192  0.5072  2.3239  1.6992  0.1279 -1.7188 -2.0000 -0.2827 -1.0707  1.4332
 A-DIIS (wt  0.068):  0.0016  0.0000  0.4192  0.0000  0.0000  0.4195  0.0000  0.0000  0.0000  0.1597
  DIIS coefficients: -0.0178  0.4729  2.1953  1.5844  0.1192 -1.5744 -1.8649 -0.2636 -0.9984  1.3472
 SCF Error: norm([F,P])=      0.017552331707, max([F,P])=      0.007685540650
 orbitals (Q,E):
 ---------------
 A :1...7            ( 2.00    -1.1668)  ( 2.00    -0.7776)  ( 2.00    -0.4985)  ( 2.00    -0.4964)
                     ( 2.00    -0.4454)  ( 2.00    -0.3083)  ( 0.00    -0.2546)

 CYCLE   52
  SDIIS (wt  0.000): -0.3802  0.3617 -0.0013  1.0195  0.0002
 A-DIIS (wt  1.000):  0.0000  0.3336  0.0000  0.4213  0.2451
  DIIS coefficients:  0.0000  0.3336  0.0000  0.4213  0.2451
 SCF Error: norm([F,P])=      0.039994326873, max([F,P])=      0.020547904753
 orbitals (Q,E):
 ---------------
 A :1...7            ( 2.00    -1.1655)  ( 2.00    -0.7765)  ( 2.00    -0.4974)  ( 2.00    -0.4698)
                     ( 2.00    -0.4697)  ( 2.00    -0.2802)  ( 0.00    -0.2801)

 CYCLE   53
  SDIIS (wt  0.914):  0.4804 -0.4331 -0.0389  2.7983 -0.0348 -0.0411 -0.0141 -0.2557 -0.7604 -0.7007
 A-DIIS (wt  0.086):  0.4188  0.0000  0.0000  0.4203  0.0000  0.0000  0.0000  0.1609  0.0000  0.0000
  DIIS coefficients:  0.4751 -0.3959 -0.0355  2.5941 -0.0318 -0.0376 -0.0129 -0.2199 -0.6951 -0.6405
 SCF Error: norm([F,P])=      0.018116226734, max([F,P])=      0.009501782684
 orbitals (Q,E):
 ---------------
 A :1...7            ( 2.00    -1.1668)  ( 2.00    -0.7776)  ( 2.00    -0.4985)  ( 2.00    -0.4885)
                     ( 2.00    -0.4532)  ( 2.00    -0.3000)  ( 0.00    -0.2628)

 CYCLE   54
  SDIIS (wt  0.000): -0.0505 -0.0081 -0.1814  0.9345  0.3055
 A-DIIS (wt  1.000):  0.4221  0.0000  0.2271  0.2747  0.0762
  DIIS coefficients:  0.4221  0.0000  0.2271  0.2747  0.0762
 SCF Error: norm([F,P])=      0.033560168225, max([F,P])=      0.018584428512
 orbitals (Q,E):
 ---------------
 A :1...7            ( 2.00    -1.1656)  ( 2.00    -0.7765)  ( 2.00    -0.4975)  ( 2.00    -0.4701)
                     ( 2.00    -0.4695)  ( 2.00    -0.2805)  ( 0.00    -0.2799)

 CYCLE   55
  SDIIS (wt  0.000):  0.1572  0.0282 -0.1798  0.7752  0.1045  0.1148
 A-DIIS (wt  1.000):  0.3698  0.0856  0.0000  0.4170  0.0000  0.1276
  DIIS coefficients:  0.3698  0.0856  0.0000  0.4170  0.0000  0.1276
 SCF Error: norm([F,P])=      0.059588717429, max([F,P])=      0.028870760886
 orbitals (Q,E):
 ---------------
 A :1...7            ( 2.00    -1.1665)  ( 2.00    -0.7774)  ( 2.00    -0.4983)  ( 2.00    -0.4706)
                     ( 2.00    -0.4706)  ( 2.00    -0.2811)  ( 0.00    -0.2811)

 CYCLE   56
  SDIIS (wt  0.000):  2.9885 -0.9860  0.0118  0.0960 -0.3264 -0.9263 -0.7718  0.8762 -0.0156  0.0534
 A-DIIS (wt  1.000):  0.0000  0.0000  0.0000  0.0578  0.3016  0.0000  0.3251  0.0000  0.0000  0.3155
  DIIS coefficients:  0.0000  0.0000  0.0000  0.0578  0.3016  0.0000  0.3251  0.0000  0.0000  0.3155
 SCF Error: norm([F,P])=      0.023500431366, max([F,P])=      0.013219233373
 orbitals (Q,E):
 ---------------
 A :1...7            ( 2.00    -1.1661)  ( 2.00    -0.7770)  ( 2.00    -0.4979)  ( 2.00    -0.4702)
                     ( 2.00    -0.4702)  ( 2.00    -0.2807)  ( 0.00    -0.2807)

 CYCLE   57
  SDIIS (wt  0.911):  1.2194 -0.8585 -0.1636 -0.0330 -0.2421  0.1368 -1.5017  0.1709  0.2957  1.9762
 A-DIIS (wt  0.089):  0.0000  0.0000  0.0000  0.3434  0.0000  0.3049  0.0000  0.0000  0.1828  0.1690
  DIIS coefficients:  1.1109 -0.7821 -0.1490  0.0005 -0.2206  0.1518 -1.3681  0.1557  0.2856  1.8154
 SCF Error: norm([F,P])=      0.018063504634, max([F,P])=      0.009807559089
 orbitals (Q,E):
 ---------------
 A :1...7            ( 2.00    -1.1669)  ( 2.00    -0.7777)  ( 2.00    -0.4986)  ( 2.00    -0.4882)
                     ( 2.00    -0.4536)  ( 2.00    -0.2997)  ( 0.00    -0.2632)

 CYCLE   58
  SDIIS (wt  0.000): -0.5857 -0.1370 -0.9149 -0.2131  1.0590  0.9240  0.8677
 A-DIIS (wt  1.000):  0.0000  0.4377  0.4086  0.0000  0.1036  0.0000  0.0500
  DIIS coefficients:  0.0000  0.4377  0.4086  0.0000  0.1036  0.0000  0.0500
 SCF Error: norm([F,P])=      0.033430942202, max([F,P])=      0.017615111215
 orbitals (Q,E):
 ---------------
 A :1...7            ( 2.00    -1.1651)  ( 2.00    -0.7761)  ( 2.00    -0.4971)  ( 2.00    -0.4695)
                     ( 2.00    -0.4694)  ( 2.00    -0.2799)  ( 0.00    -0.2798)

 CYCLE   59
  SDIIS (wt  0.935): -0.9830  3.0000 -0.1418 -0.8526 -1.0056  0.0091 -0.0989  2.0146 -0.0019 -0.9400
 A-DIIS (wt  0.065):  0.0000  0.3434  0.0000  0.3049  0.0000  0.0000  0.1828  0.1690  0.0000  0.0000
  DIIS coefficients: -0.9189  2.8268 -0.1325 -0.7771 -0.9401  0.0085 -0.0805  1.8943 -0.0018 -0.8787
 SCF Error: norm([F,P])=      0.017727174440, max([F,P])=      0.007452969742
 orbitals (Q,E):
 ---------------
 A :1...7            ( 2.00    -1.1669)  ( 2.00    -0.7777)  ( 2.00    -0.4986)  ( 2.00    -0.4848)
                     ( 2.00    -0.4571)  ( 2.00    -0.2961)  ( 0.00    -0.2669)

 CYCLE   60
  SDIIS (wt  0.000): -1.0001 -0.1125  0.9321  1.1882  1.1944 -0.1464 -1.0558
 A-DIIS (wt  1.000):  0.0000  0.0000  0.0000  0.3145  0.0000  0.3489  0.3366
  DIIS coefficients:  0.0000  0.0000  0.0000  0.3145  0.0000  0.3489  0.3366
 SCF Error: norm([F,P])=      0.030646201925, max([F,P])=      0.017658663836
 orbitals (Q,E):
 ---------------
 A :1...7            ( 2.00    -1.1656)  ( 2.00    -0.7766)  ( 2.00    -0.4975)  ( 2.00    -0.4698)
                     ( 2.00    -0.4698)  ( 2.00    -0.2803)  ( 0.00    -0.2802)

 CYCLE   61
  SDIIS (wt  0.906): -2.0000 -1.0767 -0.1713 -0.1676  0.6289  0.2093 -0.1351 -0.1077  2.4525  1.3677
 A-DIIS (wt  0.094):  0.0000  0.3365  0.0000  0.0000  0.0525  0.2708  0.0000  0.3402  0.0000  0.0000
  DIIS coefficients: -1.8120 -0.9439 -0.1552 -0.1519  0.5747  0.2151 -0.1224 -0.0656  2.2221  1.2392
 SCF Error: norm([F,P])=      0.018504023314, max([F,P])=      0.010303969990
 orbitals (Q,E):
 ---------------
 A :1...7            ( 2.00    -1.1669)  ( 2.00    -0.7777)  ( 2.00    -0.4986)  ( 2.00    -0.4849)
                     ( 2.00    -0.4569)  ( 2.00    -0.2962)  ( 0.00    -0.2668)

 CYCLE   62
  SDIIS (wt  0.000): -0.3702  0.5683  0.2159  0.4312  0.1548
 A-DIIS (wt  1.000):  0.0000  0.0000  0.5007  0.0000  0.4993
  DIIS coefficients:  0.0000  0.0000  0.5007  0.0000  0.4993
 SCF Error: norm([F,P])=      0.030620447586, max([F,P])=      0.013249546752
 orbitals (Q,E):
 ---------------
 A :1...7            ( 2.00    -1.1639)  ( 2.00    -0.7751)  ( 2.00    -0.4960)  ( 2.00    -0.4735)
                     ( 2.00    -0.4632)  ( 2.00    -0.2841)  ( 0.00    -0.2732)

 CYCLE   63
  SDIIS (wt  0.000): -0.5426  0.6272  0.2730  0.5615  0.2355 -0.1547
 A-DIIS (wt  1.000):  0.0000  0.3608  0.0000  0.2924  0.0000  0.3468
  DIIS coefficients:  0.0000  0.3608  0.0000  0.2924  0.0000  0.3468
 SCF Error: norm([F,P])=      0.022260387249, max([F,P])=      0.007376294847
 orbitals (Q,E):
 ---------------
 A :1...7            ( 2.00    -1.1671)  ( 2.00    -0.7779)  ( 2.00    -0.4988)  ( 2.00    -0.4711)
                     ( 2.00    -0.4710)  ( 2.00    -0.2817)  ( 0.00    -0.2816)

 CYCLE   64
  SDIIS (wt  0.000):  2.8799  2.2111  0.0221 -2.0000  0.0531 -1.9915 -0.8135  0.6389
 A-DIIS (wt  1.000):  0.2821  0.0000  0.3316  0.0000  0.3220  0.0000  0.0000  0.0643
  DIIS coefficients:  0.2821  0.0000  0.3316  0.0000  0.3220  0.0000  0.0000  0.0643
 SCF Error: norm([F,P])=      0.024502473373, max([F,P])=      0.011889095791
 orbitals (Q,E):
 ---------------
 A :1...7            ( 2.00    -1.1664)  ( 2.00    -0.7772)  ( 2.00    -0.4982)  ( 2.00    -0.4705)
                     ( 2.00    -0.4705)  ( 2.00    -0.2810)  ( 0.00    -0.2810)

 CYCLE   65
  SDIIS (wt  0.893):  0.3272  2.7548  2.0085 -0.1475 -2.0000  0.0898 -1.7901 -0.8380  0.2393  0.3559
 A-DIIS (wt  0.107):  0.0000  0.3508  0.0000  0.3108  0.0000  0.1224  0.0000  0.0000  0.0000  0.2160
  DIIS coefficients:  0.2922  2.4977  1.7937 -0.0985 -1.7861  0.0933 -1.5986 -0.7484  0.2137  0.3410
 SCF Error: norm([F,P])=      0.018724076725, max([F,P])=      0.011587058414
 orbitals (Q,E):
 ---------------
 A :1...7            ( 2.00    -1.1669)  ( 2.00    -0.7777)  ( 2.00    -0.4986)  ( 2.00    -0.4951)
                     ( 2.00    -0.4468)  ( 2.00    -0.3069)  ( 0.00    -0.2561)

 CYCLE   66
  SDIIS (wt  0.000):  0.4775  0.1403  0.1269  0.2553
 A-DIIS (wt  1.000):  0.5014  0.0000  0.0000  0.4986
  DIIS coefficients:  0.5014  0.0000  0.0000  0.4986
 SCF Error: norm([F,P])=      0.039065142634, max([F,P])=      0.019666810459
 orbitals (Q,E):
 ---------------
 A :1...7            ( 2.00    -1.1654)  ( 2.00    -0.7764)  ( 2.00    -0.4974)  ( 2.00    -0.4703)
                     ( 2.00    -0.4691)  ( 2.00    -0.2807)  ( 0.00    -0.2795)

 CYCLE   67
  SDIIS (wt  0.000): -0.4180  0.6968  0.6223 -0.3400 -0.1575  1.2752 -0.6736 -0.0051
 A-DIIS (wt  1.000):  0.0000  0.4212  0.0000  0.1885  0.0000  0.0000  0.0000  0.3904
  DIIS coefficients:  0.0000  0.4212  0.0000  0.1885  0.0000  0.0000  0.0000  0.3904
 SCF Error: norm([F,P])=      0.024813359140, max([F,P])=      0.010693879770
 orbitals (Q,E):
 ---------------
 A :1...7            ( 2.00    -1.1668)  ( 2.00    -0.7776)  ( 2.00    -0.4985)  ( 2.00    -0.4708)
                     ( 2.00    -0.4708)  ( 2.00    -0.2813)  ( 0.00    -0.2813)

 CYCLE   68
  SDIIS (wt  0.000): -1.6597 -0.6665  0.4156 -1.3567 -0.4567 -0.1571  1.0050  0.2842  1.9111  1.6809
 A-DIIS (wt  1.000):  0.2390  0.0000  0.3271  0.0000  0.0000  0.2643  0.0000  0.0000  0.0000  0.1696
  DIIS coefficients:  0.2390  0.0000  0.3271  0.0000  0.0000  0.2643  0.0000  0.0000  0.0000  0.1696
 SCF Error: norm([F,P])=      0.024407738226, max([F,P])=      0.013716306737
 orbitals (Q,E):
 ---------------
 A :1...7            ( 2.00    -1.1660)  ( 2.00    -0.7769)  ( 2.00    -0.4978)  ( 2.00    -0.4701)
                     ( 2.00    -0.4701)  ( 2.00    -0.2806)  ( 0.00    -0.2806)

 CYCLE   69
  SDIIS (wt  0.918): -1.3633  0.2538 -1.2433 -1.1177 -0.1480  0.7450  0.9355 -0.0496 -0.0123  3.0000
 A-DIIS (wt  0.082):  0.0000  0.0958  0.0000  0.0000  0.0000  0.3593  0.0000  0.1438  0.2177  0.1834
  DIIS coefficients: -1.2518  0.2409 -1.1415 -1.0263 -0.1359  0.7134  0.8590 -0.0338  0.0065  2.7695
 SCF Error: norm([F,P])=      0.017389229740, max([F,P])=      0.009101521624
 orbitals (Q,E):
 ---------------
 A :1...7            ( 2.00    -1.1669)  ( 2.00    -0.7777)  ( 2.00    -0.4986)  ( 2.00    -0.4888)
                     ( 2.00    -0.4531)  ( 2.00    -0.3003)  ( 0.00    -0.2627)

 CYCLE   70
  SDIIS (wt  0.000): -0.0020 -0.1178  0.7822  0.3376
 A-DIIS (wt  1.000):  0.0000  0.0000  0.5009  0.4991
  DIIS coefficients:  0.0000  0.0000  0.5009  0.4991
 SCF Error: norm([F,P])=      0.033869156581, max([F,P])=      0.016344919171
 orbitals (Q,E):
 ---------------
 A :1...7            ( 2.00    -1.1648)  ( 2.00    -0.7759)  ( 2.00    -0.4968)  ( 2.00    -0.4727)
                     ( 2.00    -0.4657)  ( 2.00    -0.2832)  ( 0.00    -0.2759)

 CYCLE   71
  SDIIS (wt  0.000): -2.0000  0.1480  0.2157 -0.1532  2.2662  0.5232
 A-DIIS (wt  1.000):  0.0000  0.2038  0.2576  0.0000  0.0733  0.4652
  DIIS coefficients:  0.0000  0.2038  0.2576  0.0000  0.0733  0.4652
 SCF Error: norm([F,P])=      0.019811274237, max([F,P])=      0.006907181019
 orbitals (Q,E):
 ---------------
 A :1...7            ( 2.00    -1.1662)  ( 2.00    -0.7771)  ( 2.00    -0.4980)  ( 2.00    -0.4703)
                     ( 2.00    -0.4703)  ( 2.00    -0.2808)  ( 0.00    -0.2808)

 CYCLE   72
  SDIIS (wt  0.913): -0.1221 -0.1688  1.0253 -2.0000  0.1105 -0.0610  0.3646  1.6985 -0.4697  0.6227
 A-DIIS (wt  0.087):  0.0000  0.0000  0.1818  0.0000  0.0539  0.0000  0.4316  0.0000  0.0000  0.3327
  DIIS coefficients: -0.1115 -0.1542  0.9521 -1.8266  0.1056 -0.0557  0.3704  1.5512 -0.4289  0.5975
 SCF Error: norm([F,P])=      0.018787499388, max([F,P])=      0.009584360157
 orbitals (Q,E):
 ---------------
 A :1...7            ( 2.00    -1.1669)  ( 2.00    -0.7776)  ( 2.00    -0.4985)  ( 2.00    -0.4874)
                     ( 2.00    -0.4544)  ( 2.00    -0.2988)  ( 0.00    -0.2641)

 CYCLE   73
  SDIIS (wt  0.000):  0.2254  0.5177  0.2569
 A-DIIS (wt  1.000):  0.0844  0.4597  0.4559
  DIIS coefficients:  0.0844  0.4597  0.4559
 SCF Error: norm([F,P])=      0.032571828831, max([F,P])=      0.018084969076
 orbitals (Q,E):
 ---------------
 A :1...7            ( 2.00    -1.1650)  ( 2.00    -0.7760)  ( 2.00    -0.4970)  ( 2.00    -0.4693)
                     ( 2.00    -0.4693)  ( 2.00    -0.2797)  ( 0.00    -0.2797)

 CYCLE   74
  SDIIS (wt  0.000): -0.2000  1.3627  0.0706 -0.0320  0.2931 -0.4791 -0.0153
 A-DIIS (wt  1.000):  0.0000  0.3614  0.0000  0.1518  0.4103  0.0000  0.0766
  DIIS coefficients:  0.0000  0.3614  0.0000  0.1518  0.4103  0.0000  0.0766
 SCF Error: norm([F,P])=      0.021816524082, max([F,P])=      0.011256488699
 orbitals (Q,E):
 ---------------
 A :1...7            ( 2.00    -1.1662)  ( 2.00    -0.7771)  ( 2.00    -0.4980)  ( 2.00    -0.4703)
                     ( 2.00    -0.4703)  ( 2.00    -0.2808)  ( 0.00    -0.2808)

 CYCLE   75
  SDIIS (wt  0.000): -2.0000 -0.3843 -0.5083  1.0125  1.7807 -0.7374  0.9601 -0.0614  0.0622  0.8759
 A-DIIS (wt  1.000):  0.0000  0.0000  0.0000  0.4889  0.0000  0.0064  0.2640  0.0000  0.0000  0.2407
  DIIS coefficients:  0.0000  0.0000  0.0000  0.4889  0.0000  0.0064  0.2640  0.0000  0.0000  0.2407
 SCF Error: norm([F,P])=      0.020260828359, max([F,P])=      0.012470366487
 orbitals (Q,E):
 ---------------
 A :1...7            ( 2.00    -1.1660)  ( 2.00    -0.7769)  ( 2.00    -0.4978)  ( 2.00    -0.4701)
                     ( 2.00    -0.4701)  ( 2.00    -0.2806)  ( 0.00    -0.2806)

 CYCLE   76
  SDIIS (wt  0.933):  0.3102  1.1823 -1.5362 -0.5490 -1.3323 -0.6751 -0.2675  0.7495  0.1181  3.0000
 A-DIIS (wt  0.067):  0.0000  0.0000  0.4848  0.0000  0.0000  0.2839  0.0000  0.0000  0.2122  0.0191
  DIIS coefficients:  0.2895  1.1036 -1.4016 -0.5124 -1.2436 -0.6112 -0.2497  0.6996  0.1244  2.8015
 SCF Error: norm([F,P])=      0.017319612406, max([F,P])=      0.007593207958
 orbitals (Q,E):
 ---------------
 A :1...7            ( 2.00    -1.1669)  ( 2.00    -0.7777)  ( 2.00    -0.4986)  ( 2.00    -0.4764)
                     ( 2.00    -0.4655)  ( 2.00    -0.2872)  ( 0.00    -0.2758)

 CYCLE   77
  SDIIS (wt  0.000): -0.5145 -0.4709  0.4067 -1.3833 -0.1301  0.3509  0.7613  1.9799
 A-DIIS (wt  1.000):  0.0000  0.0000  0.3182  0.0000  0.2073  0.0000  0.2544  0.2201
  DIIS coefficients:  0.0000  0.0000  0.3182  0.0000  0.2073  0.0000  0.2544  0.2201
 SCF Error: norm([F,P])=      0.023622389493, max([F,P])=      0.014527656369
 orbitals (Q,E):
 ---------------
 A :1...7            ( 2.00    -1.1659)  ( 2.00    -0.7768)  ( 2.00    -0.4977)  ( 2.00    -0.4701)
                     ( 2.00    -0.4700)  ( 2.00    -0.2805)  ( 0.00    -0.2805)

 CYCLE   78
  SDIIS (wt  0.893):  2.3312 -0.3293 -0.5219  0.4812 -1.3157 -0.4143  0.4592  0.1282  1.2173 -1.0359
 A-DIIS (wt  0.107):  0.4848  0.0000  0.0000  0.2839  0.0000  0.0000  0.2122  0.0191  0.0000  0.0000
  DIIS coefficients:  2.1342 -0.2942 -0.4662  0.4602 -1.1753 -0.3701  0.4329  0.1166  1.0874 -0.9254
 SCF Error: norm([F,P])=      0.018896736901, max([F,P])=      0.011563469327
 orbitals (Q,E):
 ---------------
 A :1...7            ( 2.00    -1.1669)  ( 2.00    -0.7776)  ( 2.00    -0.4985)  ( 2.00    -0.4794)
                     ( 2.00    -0.4623)  ( 2.00    -0.2904)  ( 0.00    -0.2724)

 CYCLE   79
  SDIIS (wt  0.000):  0.3631 -0.0166  0.4545  0.1990
 A-DIIS (wt  1.000):  0.2671  0.0000  0.4157  0.3171
  DIIS coefficients:  0.2671  0.0000  0.4157  0.3171
 SCF Error: norm([F,P])=      0.026003503149, max([F,P])=      0.012747468662
 orbitals (Q,E):
 ---------------
 A :1...7            ( 2.00    -1.1656)  ( 2.00    -0.7765)  ( 2.00    -0.4975)  ( 2.00    -0.4698)
                     ( 2.00    -0.4698)  ( 2.00    -0.2802)  ( 0.00    -0.2802)

 CYCLE   80
  SDIIS (wt  0.000):  0.4266 -0.1873  0.5319  0.0038  0.2248
 A-DIIS (wt  1.000):  0.3635  0.0000  0.3264  0.0894  0.2207
  DIIS coefficients:  0.3635  0.0000  0.3264  0.0894  0.2207
 SCF Error: norm([F,P])=      0.025725985415, max([F,P])=      0.009811981434
 orbitals (Q,E):
 ---------------
 A :1...7            ( 2.00    -1.1661)  ( 2.00    -0.7769)  ( 2.00    -0.4979)  ( 2.00    -0.4702)
                     ( 2.00    -0.4702)  ( 2.00    -0.2807)  ( 0.00    -0.2807)

 CYCLE   81
  SDIIS (wt  0.000): -2.0000 -0.1703 -0.0847  0.6717  2.5840  0.2581 -0.1215 -0.0002 -0.1371
 A-DIIS (wt  1.000):  0.0000  0.0000  0.3652  0.1305  0.0000  0.4628  0.0000  0.0000  0.0416
  DIIS coefficients:  0.0000  0.0000  0.3652  0.1305  0.0000  0.4628  0.0000  0.0000  0.0416
 SCF Error: norm([F,P])=      0.020332569999, max([F,P])=      0.007711814223
 orbitals (Q,E):
 ---------------
 A :1...7            ( 2.00    -1.1660)  ( 2.00    -0.7769)  ( 2.00    -0.4979)  ( 2.00    -0.4702)
                     ( 2.00    -0.4702)  ( 2.00    -0.2807)  ( 0.00    -0.2807)

 CYCLE   82
  SDIIS (wt  0.939): -2.0000 -0.1836 -0.0991  0.7181  2.5629  0.2297 -0.1240 -0.0451 -0.2033  0.1444
 A-DIIS (wt  0.061):  0.0000  0.0000  0.0000  0.4533  0.0000  0.1852  0.0000  0.0000  0.0000  0.3614
  DIIS coefficients: -1.8770 -0.1723 -0.0930  0.7019  2.4053  0.2270 -0.1164 -0.0424 -0.1908  0.1577
 SCF Error: norm([F,P])=      0.017561245432, max([F,P])=      0.007086816451
 orbitals (Q,E):
 ---------------
 A :1...7            ( 2.00    -1.1669)  ( 2.00    -0.7777)  ( 2.00    -0.4986)  ( 2.00    -0.4883)
                     ( 2.00    -0.4536)  ( 2.00    -0.2998)  ( 0.00    -0.2632)

 CYCLE   83
  SDIIS (wt  0.000):  0.1978  0.1475  2.3959  0.4235  0.6551 -0.8198 -2.0000
 A-DIIS (wt  1.000):  0.5004  0.0000  0.0000  0.0000  0.0000  0.0000  0.4996
  DIIS coefficients:  0.5004  0.0000  0.0000  0.0000  0.0000  0.0000  0.4996
 SCF Error: norm([F,P])=      0.033501494580, max([F,P])=      0.016682847645
 orbitals (Q,E):
 ---------------
 A :1...7            ( 2.00    -1.1641)  ( 2.00    -0.7752)  ( 2.00    -0.4962)  ( 2.00    -0.4733)
                     ( 2.00    -0.4639)  ( 2.00    -0.2838)  ( 0.00    -0.2739)

 CYCLE   84
  SDIIS (wt  0.000):  0.2816  0.2774  2.2987  0.7150  1.0327 -1.4755 -2.0000 -0.1298
 A-DIIS (wt  1.000):  0.0795  0.0021  0.0000  0.0000  0.0000  0.4537  0.0000  0.4646
  DIIS coefficients:  0.0795  0.0021  0.0000  0.0000  0.0000  0.4537  0.0000  0.4646
 SCF Error: norm([F,P])=      0.021274278501, max([F,P])=      0.007229636164
 orbitals (Q,E):
 ---------------
 A :1...7            ( 2.00    -1.1666)  ( 2.00    -0.7775)  ( 2.00    -0.4984)  ( 2.00    -0.4707)
                     ( 2.00    -0.4707)  ( 2.00    -0.2812)  ( 0.00    -0.2812)

 CYCLE   85
  SDIIS (wt  0.000):  2.6527 -0.4887 -0.4389  2.2085 -1.1166 -1.2875  3.0000 -2.0000 -0.7021 -0.8274
 A-DIIS (wt  1.000):  0.4354  0.0000  0.1800  0.0000  0.0000  0.0000  0.3655  0.0000  0.0000  0.0191
  DIIS coefficients:  0.4354  0.0000  0.1800  0.0000  0.0000  0.0000  0.3655  0.0000  0.0000  0.0191
 SCF Error: norm([F,P])=      0.019443149701, max([F,P])=      0.008441331737
 orbitals (Q,E):
 ---------------
 A :1...7            ( 2.00    -1.1661)  ( 2.00    -0.7769)  ( 2.00    -0.4979)  ( 2.00    -0.4702)
                     ( 2.00    -0.4702)  ( 2.00    -0.2807)  ( 0.00    -0.2807)

 CYCLE   86
  SDIIS (wt  0.918): -0.2100  0.3771  2.5045  0.7500  1.0655 -1.8328 -2.0000 -0.3634 -0.1019  0.8111
 A-DIIS (wt  0.082):  0.0000  0.0000  0.0000  0.0000  0.2654  0.1867  0.0000  0.0000  0.3168  0.2311
  DIIS coefficients: -0.1927  0.3461  2.2986  0.6883  0.9998 -1.6669 -1.8356 -0.3335 -0.0675  0.7634
 SCF Error: norm([F,P])=      0.017661497037, max([F,P])=      0.009135801998
 orbitals (Q,E):
 ---------------
 A :1...7            ( 2.00    -1.1668)  ( 2.00    -0.7776)  ( 2.00    -0.4985)  ( 2.00    -0.4821)
                     ( 2.00    -0.4596)  ( 2.00    -0.2932)  ( 0.00    -0.2696)

 CYCLE   87
  SDIIS (wt  0.000):  2.1237 -1.1237
 A-DIIS (wt  1.000):  0.9048  0.0952
  DIIS coefficients:  0.9048  0.0952
 SCF Error: norm([F,P])=      0.028130959273, max([F,P])=      0.014452334554
 orbitals (Q,E):
 ---------------
 A :1...7            ( 2.00    -1.1659)  ( 2.00    -0.7768)  ( 2.00    -0.4977)  ( 2.00    -0.4928)
                     ( 2.00    -0.4473)  ( 2.00    -0.3045)  ( 0.00    -0.2565)

 CYCLE   88
  SDIIS (wt  0.000):  0.0180  0.0924  1.3963 -0.6771  0.1704
 A-DIIS (wt  1.000):  0.0000  0.0065  0.4978  0.0000  0.4957
  DIIS coefficients:  0.0000  0.0065  0.4978  0.0000  0.4957
 SCF Error: norm([F,P])=      0.039027120226, max([F,P])=      0.021804721648
 orbitals (Q,E):
 ---------------
 A :1...7            ( 2.00    -1.1651)  ( 2.00    -0.7762)  ( 2.00    -0.4971)  ( 2.00    -0.4695)
                     ( 2.00    -0.4694)  ( 2.00    -0.2799)  ( 0.00    -0.2798)

 CYCLE   89
  SDIIS (wt  0.000):  0.6465  0.2542 -0.1161  1.5672 -0.8156 -0.3678 -0.1684
 A-DIIS (wt  1.000):  0.3097  0.1417  0.0000  0.4053  0.0000  0.0000  0.1433
  DIIS coefficients:  0.3097  0.1417  0.0000  0.4053  0.0000  0.0000  0.1433
 SCF Error: norm([F,P])=      0.039121297587, max([F,P])=      0.017940217608
 orbitals (Q,E):
 ---------------
 A :1...7            ( 2.00    -1.1656)  ( 2.00    -0.7766)  ( 2.00    -0.4975)  ( 2.00    -0.4699)
                     ( 2.00    -0.4698)  ( 2.00    -0.2803)  ( 0.00    -0.2802)

 CYCLE   90
  SDIIS (wt  0.000):  0.3534  0.2116  0.1560  0.6803 -0.3967 -0.3915  0.0889  0.2981
 A-DIIS (wt  1.000):  0.0000  0.0000  0.3098  0.2596  0.0000  0.0000  0.1612  0.2694
  DIIS coefficients:  0.0000  0.0000  0.3098  0.2596  0.0000  0.0000  0.1612  0.2694
 SCF Error: norm([F,P])=      0.036494490576, max([F,P])=      0.016396124018
 orbitals (Q,E):
 ---------------
 A :1...7            ( 2.00    -1.1661)  ( 2.00    -0.7770)  ( 2.00    -0.4979)  ( 2.00    -0.4702)
                     ( 2.00    -0.4702)  ( 2.00    -0.2807)  ( 0.00    -0.2807)

 CYCLE   91
  SDIIS (wt  0.935):  1.9330 -1.1861  0.4397  1.0544 -1.5190  0.0362 -0.0618 -1.4550 -1.2412  3.0000
 A-DIIS (wt  0.065):  0.0000  0.0000  0.0899  0.1743  0.3081  0.0000  0.0000  0.0000  0.0000  0.4277
  DIIS coefficients:  1.8082 -1.1095  0.4171  0.9976 -1.4011  0.0338 -0.0578 -1.3611 -1.1611  2.8340
 SCF Error: norm([F,P])=      0.017575500994, max([F,P])=      0.007390474975
 orbitals (Q,E):
 ---------------
 A :1...7            ( 2.00    -1.1669)  ( 2.00    -0.7776)  ( 2.00    -0.4985)  ( 2.00    -0.4922)
                     ( 2.00    -0.4496)  ( 2.00    -0.3038)  ( 0.00    -0.2590)

 CYCLE   92
  SDIIS (wt  0.000):  0.0568  0.4499  0.4228 -0.2119  0.2826
 A-DIIS (wt  1.000):  0.3836  0.1159  0.0000  0.0137  0.4868
  DIIS coefficients:  0.3836  0.1159  0.0000  0.0137  0.4868
 SCF Error: norm([F,P])=      0.036942891844, max([F,P])=      0.019054064818
 orbitals (Q,E):
 ---------------
 A :1...7            ( 2.00    -1.1642)  ( 2.00    -0.7753)  ( 2.00    -0.4963)  ( 2.00    -0.4687)
                     ( 2.00    -0.4685)  ( 2.00    -0.2790)  ( 0.00    -0.2788)

 CYCLE   93
  SDIIS (wt  0.000):  1.8178 -2.0000 -0.1161 -0.8045 -0.6612  1.8994  0.7875  0.0773
 A-DIIS (wt  1.000):  0.3335  0.0000  0.0000  0.0000  0.1421  0.2589  0.0000  0.2655
  DIIS coefficients:  0.3335  0.0000  0.0000  0.0000  0.1421  0.2589  0.0000  0.2655
 SCF Error: norm([F,P])=      0.030430505581, max([F,P])=      0.012664988537
 orbitals (Q,E):
 ---------------
 A :1...7            ( 2.00    -1.1666)  ( 2.00    -0.7774)  ( 2.00    -0.4983)  ( 2.00    -0.4706)
                     ( 2.00    -0.4706)  ( 2.00    -0.2812)  ( 0.00    -0.2811)

 CYCLE   94
  SDIIS (wt  0.000):  0.3623 -0.2497  0.6222 -0.7361 -0.3303 -0.0443  1.5267 -0.6021  0.0306  0.4207
 A-DIIS (wt  1.000):  0.1810  0.3255  0.0000  0.0000  0.0000  0.0000  0.4148  0.0000  0.0000  0.0787
  DIIS coefficients:  0.1810  0.3255  0.0000  0.0000  0.0000  0.0000  0.4148  0.0000  0.0000  0.0787
 SCF Error: norm([F,P])=      0.027903721671, max([F,P])=      0.014626297804
 orbitals (Q,E):
 ---------------
 A :1...7            ( 2.00    -1.1658)  ( 2.00    -0.7767)  ( 2.00    -0.4977)  ( 2.00    -0.4700)
                     ( 2.00    -0.4700)  ( 2.00    -0.2805)  ( 0.00    -0.2805)

 CYCLE   95
  SDIIS (wt  0.915): -0.4149  1.3861 -0.6695 -0.4796 -0.1818  1.6513 -1.0482 -0.3986 -0.8593  2.0146
 A-DIIS (wt  0.085):  0.3647  0.0000  0.0000  0.0000  0.0000  0.3892  0.0000  0.0000  0.0000  0.2461
  DIIS coefficients: -0.3485  1.2680 -0.6125 -0.4388 -0.1664  1.5439 -0.9589 -0.3647 -0.7861  1.8640
 SCF Error: norm([F,P])=      0.018572789307, max([F,P])=      0.009429653924
 orbitals (Q,E):
 ---------------
 A :1...7            ( 2.00    -1.1669)  ( 2.00    -0.7776)  ( 2.00    -0.4985)  ( 2.00    -0.4796)
                     ( 2.00    -0.4622)  ( 2.00    -0.2906)  ( 0.00    -0.2723)

 CYCLE   96
  SDIIS (wt  0.000):  1.4827 -0.7917 -0.6471 -0.2546  2.4213 -0.5477 -0.5063 -0.9267  1.8266 -1.0564
 A-DIIS (wt  1.000):  0.0000  0.0000  0.0000  0.0000  0.3295  0.0000  0.0198  0.0000  0.3012  0.3495
  DIIS coefficients:  0.0000  0.0000  0.0000  0.0000  0.3295  0.0000  0.0198  0.0000  0.3012  0.3495
 SCF Error: norm([F,P])=      0.026165941153, max([F,P])=      0.016062466260
 orbitals (Q,E):
 ---------------
 A :1...7            ( 2.00    -1.1655)  ( 2.00    -0.7765)  ( 2.00    -0.4974)  ( 2.00    -0.4698)
                     ( 2.00    -0.4697)  ( 2.00    -0.2802)  ( 0.00    -0.2802)

 CYCLE   97
  SDIIS (wt  0.000): -0.9565 -0.8206 -0.4434  3.0000  0.3355  0.7526  1.8085 -2.0000 -0.7661  0.0901
 A-DIIS (wt  1.000):  0.0000  0.0000  0.0000  0.3657  0.0000  0.0000  0.0000  0.2779  0.0000  0.3564
  DIIS coefficients:  0.0000  0.0000  0.0000  0.3657  0.0000  0.0000  0.0000  0.2779  0.0000  0.3564
 SCF Error: norm([F,P])=      0.019666589152, max([F,P])=      0.010410057187
 orbitals (Q,E):
 ---------------
 A :1...7            ( 2.00    -1.1662)  ( 2.00    -0.7771)  ( 2.00    -0.4980)  ( 2.00    -0.4704)
                     ( 2.00    -0.4703)  ( 2.00    -0.2809)  ( 0.00    -0.2808)

 CYCLE   98
  SDIIS (wt  0.000): -0.3559 -0.4287  0.1014 -1.4919 -0.5084 -1.4471  3.0000  1.7680  0.0772  0.2853
 A-DIIS (wt  1.000): -0.0000  0.0000  0.3404  0.0000  0.0000  0.0000  0.3014  0.0000  0.2805  0.0776
  DIIS coefficients: -0.0000  0.0000  0.3404  0.0000  0.0000  0.0000  0.3014  0.0000  0.2805  0.0776
 SCF Error: norm([F,P])=      0.022476878711, max([F,P])=      0.013987804137
 orbitals (Q,E):
 ---------------
 A :1...7            ( 2.00    -1.1662)  ( 2.00    -0.7771)  ( 2.00    -0.4980)  ( 2.00    -0.4703)
                     ( 2.00    -0.4703)  ( 2.00    -0.2808)  ( 0.00    -0.2808)

 CYCLE   99
  SDIIS (wt  0.914):  0.0531 -0.1916 -1.3364  0.2906  0.2975 -0.0720  1.2058 -1.3107 -0.9364  3.0000
 A-DIIS (wt  0.086):  0.0000  0.3689  0.0000  0.0000  0.0000  0.2738  0.0000  0.0791  0.0000  0.2783
  DIIS coefficients:  0.0486 -0.1435 -1.2217  0.2657  0.2720 -0.0424  1.1023 -1.1914 -0.8560  2.7664
 SCF Error: norm([F,P])=      0.017663378310, max([F,P])=      0.009497061370
 orbitals (Q,E):
 ---------------
 A :1...7            ( 2.00    -1.1670)  ( 2.00    -0.7777)  ( 2.00    -0.4986)  ( 2.00    -0.4892)
                     ( 2.00    -0.4527)  ( 2.00    -0.3008)  ( 0.00    -0.2623)

 CYCLE  100
  SDIIS (wt  0.000): -1.2665  0.8797  1.6251 -2.0000  1.1481 -1.4213 -0.8830  3.0000 -0.0821
 A-DIIS (wt  1.000):  0.0000  0.1512  0.0000  0.2110  0.0000  0.0000  0.3805  0.0000  0.2573
  DIIS coefficients:  0.0000  0.1512  0.0000  0.2110  0.0000  0.0000  0.3805  0.0000  0.2573
 SCF Error: norm([F,P])=      0.034329831443, max([F,P])=      0.013494890304
 orbitals (Q,E):
 ---------------
 A :1...7            ( 2.00    -1.1656)  ( 2.00    -0.7766)  ( 2.00    -0.4975)  ( 2.00    -0.4699)
                     ( 2.00    -0.4698)  ( 2.00    -0.2803)  ( 0.00    -0.2802)

 CYCLE  101
  SDIIS (wt  0.000): -1.3930 -0.0359 -0.4486  1.0088  1.2342 -1.2479 -0.9382  3.0000  0.0133 -0.1926
 A-DIIS (wt  1.000):  0.0000  0.0000  0.0000  0.3210  0.0000  0.0000  0.1375  0.2189  0.0000  0.3226
  DIIS coefficients:  0.0000  0.0000  0.0000  0.3210  0.0000  0.0000  0.1375  0.2189  0.0000  0.3226
 SCF Error: norm([F,P])=      0.023022812210, max([F,P])=      0.008341384837
 orbitals (Q,E):
 ---------------
 A :1...7            ( 2.00    -1.1662)  ( 2.00    -0.7770)  ( 2.00    -0.4980)  ( 2.00    -0.4703)
                     ( 2.00    -0.4703)  ( 2.00    -0.2808)  ( 0.00    -0.2808)

 CYCLE  102
  SDIIS (wt  0.932): -0.3715 -1.0785  1.2941 -0.5030 -1.1368 -1.2269  3.0000 -0.4333 -0.0491  1.5050
 A-DIIS (wt  0.068):  0.0000  0.0000  0.3067  0.0000  0.2577  0.0000  0.0727  0.0000 -0.0000  0.3629
  DIIS coefficients: -0.3461 -1.0047  1.2265 -0.4686 -1.0414 -1.1429  2.7997 -0.4036 -0.0458  1.4268
 SCF Error: norm([F,P])=      0.017917941897, max([F,P])=      0.007774565286
 orbitals (Q,E):
 ---------------
 A :1...7            ( 2.00    -1.1670)  ( 2.00    -0.7777)  ( 2.00    -0.4987)  ( 2.00    -0.4771)
                     ( 2.00    -0.4649)  ( 2.00    -0.2880)  ( 0.00    -0.2751)

 CYCLE  103
  SDIIS (wt  0.000): -0.2540 -0.4495 -0.4533  1.1334 -0.5033  0.2177  1.1337  0.1753
 A-DIIS (wt  1.000):  0.0000  0.0669  0.0000  0.0210  0.0000  0.0000  0.4808  0.4313
  DIIS coefficients:  0.0000  0.0669  0.0000  0.0210  0.0000  0.0000  0.4808  0.4313
 SCF Error: norm([F,P])=      0.024192118794, max([F,P])=      0.010287399733
 orbitals (Q,E):
 ---------------
 A :1...7            ( 2.00    -1.1653)  ( 2.00    -0.7763)  ( 2.00    -0.4973)  ( 2.00    -0.4696)
                     ( 2.00    -0.4696)  ( 2.00    -0.2800)  ( 0.00    -0.2800)

 CYCLE  104
  SDIIS (wt  0.931): -0.5352 -0.9471 -1.0981 -1.0012  3.0000 -0.5132  0.1199  1.5949  0.4626 -0.0824
 A-DIIS (wt  0.069):  0.0000  0.0000  0.0087  0.0000  0.3431  0.0000  0.0000  0.3458  0.0000  0.3023
  DIIS coefficients: -0.4980 -0.8813 -1.0213 -0.9317  2.8155 -0.4776  0.1115  1.5081  0.4305 -0.0557
 SCF Error: norm([F,P])=      0.017058370649, max([F,P])=      0.007875877061
 orbitals (Q,E):
 ---------------
 A :1...7            ( 2.00    -1.1670)  ( 2.00    -0.7777)  ( 2.00    -0.4986)  ( 2.00    -0.4808)
                     ( 2.00    -0.4610)  ( 2.00    -0.2919)  ( 0.00    -0.2711)

 CYCLE  105
  SDIIS (wt  0.000):  1.1759 -0.1759
 A-DIIS (wt  1.000):  0.5103  0.4897
  DIIS coefficients:  0.5103  0.4897
 SCF Error: norm([F,P])=      0.027291848184, max([F,P])=      0.010864173423
 orbitals (Q,E):
 ---------------
 A :1...7            ( 2.00    -1.1655)  ( 2.00    -0.7764)  ( 2.00    -0.4974)  ( 2.00    -0.4913)
                     ( 2.00    -0.4481)  ( 2.00    -0.3029)  ( 0.00    -0.2574)

 CYCLE  106
  SDIIS (wt  0.000): -0.3264  0.0524  1.4219  1.1631 -0.0283 -0.8784 -0.4044
 A-DIIS (wt  1.000):  0.0000  0.0000  0.4131  0.4863  0.0000  0.0000  0.1006
  DIIS coefficients:  0.0000  0.0000  0.4131  0.4863  0.0000  0.0000  0.1006
 SCF Error: norm([F,P])=      0.036755443997, max([F,P])=      0.017503788665
 orbitals (Q,E):
 ---------------
 A :1...7            ( 2.00    -1.1651)  ( 2.00    -0.7761)  ( 2.00    -0.4971)  ( 2.00    -0.4695)
                     ( 2.00    -0.4693)  ( 2.00    -0.2799)  ( 0.00    -0.2797)

 CYCLE  107
  SDIIS (wt  0.000): -0.2604  0.1413  1.4185  2.2807  0.0900 -1.9194 -0.4721 -0.2786
 A-DIIS (wt  1.000):  0.0000  0.0000  0.3284  0.2081  0.2247  0.0000  0.0000  0.2388
  DIIS coefficients:  0.0000  0.0000  0.3284  0.2081  0.2247  0.0000  0.0000  0.2388
 SCF Error: norm([F,P])=      0.020636571992, max([F,P])=      0.011114288012
 orbitals (Q,E):
 ---------------
 A :1...7            ( 2.00    -1.1661)  ( 2.00    -0.7769)  ( 2.00    -0.4979)  ( 2.00    -0.4702)
                     ( 2.00    -0.4702)  ( 2.00    -0.2807)  ( 0.00    -0.2807)

 CYCLE  108
  SDIIS (wt  0.000): -0.1900  0.1017  1.3574  2.1888  0.0965 -1.8902 -0.5093 -0.2197  0.0649
 A-DIIS (wt  1.000):  0.0000  0.0000  0.2895  0.0000  0.3424  0.0000  0.0000  0.2072  0.1610
  DIIS coefficients:  0.0000  0.0000  0.2895  0.0000  0.3424  0.0000  0.0000  0.2072  0.1610
 SCF Error: norm([F,P])=      0.023123685960, max([F,P])=      0.011782916807
 orbitals (Q,E):
 ---------------
 A :1...7            ( 2.00    -1.1664)  ( 2.00    -0.7773)  ( 2.00    -0.4982)  ( 2.00    -0.4705)
                     ( 2.00    -0.4705)  ( 2.00    -0.2810)  ( 0.00    -0.2810)

 CYCLE  109
  SDIIS (wt  0.917): -0.4010  0.2071  1.5294 -2.0000 -0.2795  1.1207 -0.5894 -0.6670 -0.1799  2.2596
 A-DIIS (wt  0.083):  0.0000  0.0000  0.3759  0.0000  0.2655  0.0000  0.0000  0.0000  0.0000  0.3586
  DIIS coefficients: -0.3679  0.1900  1.4341 -1.8348 -0.2345  1.0282 -0.5407 -0.6119 -0.1651  2.1026
 SCF Error: norm([F,P])=      0.017969449338, max([F,P])=      0.009177946447
 orbitals (Q,E):
 ---------------
 A :1...7            ( 2.00    -1.1669)  ( 2.00    -0.7776)  ( 2.00    -0.4986)  ( 2.00    -0.4865)
                     ( 2.00    -0.4553)  ( 2.00    -0.2979)  ( 0.00    -0.2651)

 CYCLE  110
  SDIIS (wt  0.000):  0.1517  1.0389  0.6018 -1.3269  0.5345
 A-DIIS (wt  1.000):  0.4989  0.0000  0.0000  0.0000  0.5011
  DIIS coefficients:  0.4989  0.0000  0.0000  0.0000  0.5011
 SCF Error: norm([F,P])=      0.031922511078, max([F,P])=      0.012713676711
 orbitals (Q,E):
 ---------------
 A :1...7            ( 2.00    -1.1643)  ( 2.00    -0.7754)  ( 2.00    -0.4964)  ( 2.00    -0.4711)
                     ( 2.00    -0.4664)  ( 2.00    -0.2815)  ( 0.00    -0.2765)

 CYCLE  111
  SDIIS (wt  0.000):  3.0000  1.0435  0.2348  0.3241  0.1865 -1.7953 -1.9663 -0.0273
 A-DIIS (wt  1.000):  0.0000  0.4027  0.1959  0.2985  0.0000  0.0000  0.0000  0.1030
  DIIS coefficients:  0.0000  0.4027  0.1959  0.2985  0.0000  0.0000  0.0000  0.1030
 SCF Error: norm([F,P])=      0.037525391533, max([F,P])=      0.017230439769
 orbitals (Q,E):
 ---------------
 A :1...7            ( 2.00    -1.1665)  ( 2.00    -0.7773)  ( 2.00    -0.4983)  ( 2.00    -0.4706)
                     ( 2.00    -0.4705)  ( 2.00    -0.2811)  ( 0.00    -0.2811)

 CYCLE  112
  SDIIS (wt  0.000): -2.0000 -1.6413 -1.2238  0.4405  0.4080  1.7488  1.2392  0.8635  1.1651
 A-DIIS (wt  1.000):  0.0000  0.4016  0.0000  0.3812  0.0000  0.0000  0.0000  0.0134  0.2038
  DIIS coefficients:  0.0000  0.4016  0.0000  0.3812  0.0000  0.0000  0.0000  0.0134  0.2038
 SCF Error: norm([F,P])=      0.037313011228, max([F,P])=      0.016593108997
 orbitals (Q,E):
 ---------------
 A :1...7            ( 2.00    -1.1666)  ( 2.00    -0.7774)  ( 2.00    -0.4983)  ( 2.00    -0.4707)
                     ( 2.00    -0.4706)  ( 2.00    -0.2812)  ( 0.00    -0.2812)

 CYCLE  113
  SDIIS (wt  0.930): -0.6903 -0.9224  0.1273  0.3063  0.8044 -0.2215  0.3846  0.6768  0.5349
 A-DIIS (wt  0.070):  0.2393  0.0000  0.0000  0.1091  0.2688  0.0000  0.0000  0.0000  0.3828
  DIIS coefficients: -0.6249 -0.8575  0.1183  0.2924  0.7667 -0.2059  0.3575  0.6291  0.5242
 SCF Error: norm([F,P])=      0.018853695149, max([F,P])=      0.007970021080
 orbitals (Q,E):
 ---------------
 A :1...7            ( 2.00    -1.1669)  ( 2.00    -0.7777)  ( 2.00    -0.4986)  ( 2.00    -0.4868)
                     ( 2.00    -0.4550)  ( 2.00    -0.2982)  ( 0.00    -0.2647)

 CYCLE  114
  SDIIS (wt  0.000): -0.6764 -0.1249  0.1698  0.8402  0.1171  0.3879  0.7070 -0.4208
 A-DIIS (wt  1.000):  0.0000  0.0000  0.2971  0.0900  0.1184  0.0000  0.3215  0.1730
  DIIS coefficients:  0.0000  0.0000  0.2971  0.0900  0.1184  0.0000  0.3215  0.1730
 SCF Error: norm([F,P])=      0.032245510881, max([F,P])=      0.015835877871
 orbitals (Q,E):
 ---------------
 A :1...7            ( 2.00    -1.1656)  ( 2.00    -0.7765)  ( 2.00    -0.4975)  ( 2.00    -0.4698)
                     ( 2.00    -0.4698)  ( 2.00    -0.2803)  ( 0.00    -0.2802)

 CYCLE  115
  SDIIS (wt  0.916): -0.9632  0.3481  0.6327 -0.4544  1.9326  0.0743  0.5970  1.2167 -2.0000 -0.3838
[...]
 ===============================================================

     1 :     6.1183
     2 :    -0.1183    6.1183



 =================================================
 H I R S H F E L D   C H A R G E   A N A L Y S I S
 =================================================
  
 For each fragment: the (numerical) integral of rho(scf) * rho(fragment)/rho(sum-of-fragments)
 (nuclear charges are included, electrons are counted negative)

 The fragments and their ordering are defined in the early G E O M E T R Y output section.
 If you use single-atom fragments, this usually implies that all atoms of the same
 chemical type are grouped together. This may not be the order in which you listed them
 in the input file!

    1  O                        -0.0000
    2  O                        -0.0000

 Sum of these charges (accuracy NumInt/Tails) =          -0.00000223



 =============================
 V O R O N O I   C H A R G E S
 =============================
  
 For each atom: the (numerical) integral of the total electronic charge density in its Voronoi cell,
 i.e. the region of space that is closer to that atom than to any other atom.
 (cf. Wigner-Seitz cells in crystals)

 Within the Voronoi cell the subintegrals over the atomic sphere and the remaining part are evaluated
 separately to give the numbers of electrons (negative charge) in these regions.
 The net total charge in the cell (including the nuclear charge) is also given.

 Values are provided for
    a) the Initial (sum-of-fragments) density
    b) the Orthogonalized-Fragments density
    c) the SCF density
    d) the Voronoi Deformation Density (VDD): the difference SCF-Initial for the complete atomic cell


  Atom                Initial                    OrthFrag                   SCF
             Sphere RestCell NetTotal   Sphere RestCell NetTotal   Sphere RestCell NetTotal      VDD
 -----       ------------------------   ------------------------   ------------------------    -----
    1 O      -3.287   -4.713   -0.000   -3.405   -4.595   -0.000   -3.301   -4.699   -0.000   -0.000
    2 O      -3.287   -4.713   -0.000   -3.405   -4.595   -0.000   -3.301   -4.699   -0.000   -0.000
 ---------------------------------------------------------------------------------------------------
 Total NetCharge:              -0.000                     -0.000                     -0.000   -0.000
 (accuracy NumInt/Tails)

 Remark: the 'NetTotal' Voronoi charges often do not match the Mulliken and/or Hirshfeld charges very
 well. This is caused by the fact that chemically different atoms are not treated in accordance with
 their relative sizes. (Voronoi cells are defined by boundary planes halfway between the atoms.)
 However, the CHANGES in charge, comparing 'Initial' to 'SCF' for instance, do give a fair indication
 of the flow of charge caused by the relaxation from sum-of-fragments to self-consistency.

 Warning: the absolute accuracy of the VDD charges obtained using the Fuzzy Cells (Becke) integration
 scheme is much poorer than the one obtained with an 'equivalent' Voronoi integration grid. 



 =================================================================
 M U L T I P O L E   D E R I V E D   C H A R G E   A N A L Y S I S
 =================================================================

 This charge analysis uses the atomic multipoles (obtained from the fitted density) up to some level X,
 and reconstructs these multipoles exactly (up to level X) by distributing charges over all atoms.
 This is achieved by using Lagrange multipliers and a weight function to keep the multipoles local.

 Dummy atoms can be included (by setting INCDUM in MDC-block to 1) to obtain a fractional charge.
 This is generally useful and necessary only for small symmetrical molecules, when there are not
 enough degrees of freedom to reconstruct the multipoles.

 Since the atomic multipoles are reconstructed up to level X,
 the molecular multipoles are represented also up to level X.
 The recommended level is to reconstruct up to quadrupole : -> MDC-q charges.

 See: M. Swart, P.Th. van Duijnen, J.G. Snijders, J.Comput.Chem., (2001), p. 79-88.

 ------------------------------------------------------------- 
 Atomic electronic multipole moments from SCF equations (a.u.)
 ------------------------------------------------------------- 

   atom        charge        dip-x     dip-y     dip-z      quad-xx   quad-xy   quad-xz   quad-yy   quad-yz   quad-zz
 --------------------------------------------------------------------------------------------------------------------
    1 O     -0.000000     0.340926  0.036077 -0.000000     0.677202  0.033110 -0.000001  0.213679  0.000014 -0.890881
    2 O      0.000000    -0.340926 -0.036077 -0.000000     0.677202  0.033110 -0.000001  0.213679  0.000014 -0.890881

 --------------------------------------- 
 Multipole derived atomic charges (a.u.)
 --------------------------------------- 

 The MDC-m charges are just the Monopole terms in the multipole expansion, while for the MDC-d charges
 also the Dipoles are reconstructed. The usually preferred charges are the MDC-q charges.
 These reconstruct the Monopoles, Dipoles and Quadrupoles (both atomic AND molecular).

        Atom    Level:     MDC-m        MDC-d        MDC-q
 ---------------------------------------------------------
     1     O           -0.000000    -0.000000    -0.000000
     2     O            0.000000     0.000000     0.000000

 ------------------------------------------------ 
 Average absolute deviations in atomic multipoles
 ------------------------------------------------ 

 Stated here are the average differences between the atomic multipoles
 and the reconstructed atomic multipoles (from the distributed charges).
 If these values are not zero, this means there are not enough degrees of freedom,
 to be able to reconstruct the atomic multipoles. (This usually happens only
 for small and/or highly symmetric molecules). If this is the case, one could add
 dummy atoms as extra point charges (and setting INCDUM in MDC-block to 1).

 Level:                                 MDC-d        MDC-q
 ---------------------------------------------------------
 Charge   (a.u.)                       0.0000       0.0000
 Dipole   (Debye)                      0.0002       0.0688
 Quad.    (a.u.)                       0.2298       0.1990

 --------------------------------------- 
 Represented molecular multipole moments
 --------------------------------------- 

 Given here are the Molecular multipole moments from the atomic charges, and from the Fit Density.
 Note that the atomic charges represent the latter, NOT the ones from the Exact density.

            Q (a.u.)             Dipole moment (Debye)                                          Quadrupole moment (a.u.)
                                 x         y         z              xx        xy        xz        yy        yz        zz
------------------------------------------------------------------------------------------------------------------------
MDC-m         0.0000        0.0000    0.0000    0.0000         -0.0000   -0.0000   -0.0000    0.0000   -0.0000    0.0000
MDC-d         0.0000        0.0000    0.0000    0.0000         -0.0000   -0.0000   -0.0000    0.0000   -0.0000    0.0000
MDC-q         0.0000        0.0000    0.0000    0.0000         -0.0000   -0.0000   -0.0000    0.0000   -0.0000    0.0000
 
Fit.Dens.     0.0000        0.0000   -0.0000   -0.0000         -0.3411   -0.2037   -0.0000    1.2609    0.0000   -0.9198



 =============
 Dipole Moment  ***  (Debye)  ***
 =============
  
 Vector   :         0.00000012     -0.00000001      0.00000007
 Magnitude:         0.00000014

 This molecular dipole moment is calculated with analytic integration



 =========================================
 Quadrupole Moment (Buckingham convention)  ***  (a.u.)  ***
 =========================================
  
      quad-xx        quad-xy        quad-xz        quad-yy        quad-yz        quad-zz
     -0.34016347    -0.17101481    -0.00000485     1.26179776     0.00004373    -0.92163428

 This molecular quadrupole moment is calculated with analytic integration
1



 ===========================
 B O N D I N G   E N E R G Y  ***  (decomposition)  ***
 ===========================
  
*** IMPORTANT NOTE ***

The bond energy is computed as an energy difference between molecule and
fragments. In particular when the fragments are single atoms, they are usually
computed as SPHERICALLY SYMMETRIC and SPIN-RESTRICTED. Obviously, this usually
does NOT represent the true atomic groundstate.

To obtain the 'real' bond energy, (atomic) correction terms must be applied
for the true (multiplet) fragment ground state. See ref: E.J.Baerends,
V.Branchadell, M.Sodupe, Chem.Phys.Lett.265 (1997) 481

General theoretical background on the bond energy decomposition scheme used
here (Morokuma-Ziegler) can be found in the review paper:
F.M. Bickelhaupt and E.J. Baerends,
"Kohn-Sham Density Functional Theory: Predicting and Understanding Chemistry"
In: Rev. Comput. Chem.; Lipkowitz, K. B. and Boyd, D. B., Eds.;
Wiley-VCH: New York, 2000, Vol. 15, 1-86.

Symbols used in the Bickelhaupt-Baerends (BB) paper are given below to make
the direct connection to that paper, where detailed explanations can be found
on the meaning of the various terms.


                                                   hartree              eV         kcal/mol           kJ/mol
                                      --------------------     -----------       ----------      -----------

Pauli Repulsion
  Kinetic (Delta T^0):                   3.866718219006033        105.2188          2426.40         10152.07
  Delta V^Pauli Coulomb:                -2.492069688604461        -67.8127         -1563.80         -6542.93
  Delta V^Pauli LDA-XC:                 -0.451096894502006        -12.2750          -283.07         -1184.35
                                      --------------------     -----------       ----------      -----------
  Total Pauli Repulsion:                 0.923551635899566         25.1311           579.54          2424.78
 (Total Pauli Repulsion =
  Delta E^Pauli in BB paper)

Steric Interaction
  Pauli Repulsion (Delta E^Pauli):       0.923551635899566         25.1311           579.54          2424.78
  Electrostatic Interaction:            -0.254299487085075         -6.9198          -159.58          -667.66
 (Electrostatic Interaction =
  Delta V_elstat in the BB paper)
                                      --------------------     -----------       ----------      -----------
  Total Steric Interaction:              0.669252148814491         18.2113           419.96          1757.12
 (Total Steric Interaction =
  Delta E^0 in the BB paper)

Orbital Interactions
  A:                                    -0.921823054134502        -25.0841          -578.45         -2420.25
                                      --------------------     -----------       ----------      -----------
  Total Orbital Interactions:           -0.921823054134502        -25.0841          -578.45         -2420.25

Alternative Decomposition Orb.Int.
  Kinetic:                              -3.571207001712820        -97.1775         -2240.97         -9376.20
  Coulomb:                               2.450809664846831         66.6899          1537.91          6434.60
  XC:                                    0.198574282731488          5.4035           124.61           521.36
                                      --------------------     -----------       ----------      -----------
  Total Orbital Interactions:           -0.921823054134502        -25.0841          -578.45         -2420.25

  Residu (E=Steric+OrbInt+Res):          0.000005416521358          0.0001             0.00             0.01

Total Bonding Energy:                   -0.252565488798653         -6.8727          -158.49          -663.11


Summary of Bonding Energy (energy terms are taken from the energy decomposition above)
======================================================================================

  Electrostatic Energy:                 -0.254299487085075         -6.9198          -159.58          -667.66
  Kinetic Energy:                        0.295511217293212          8.0413           185.44           775.86
  Coulomb (Steric+OrbInt) Energy:       -0.041254607236271         -1.1226           -25.89          -108.31
  XC Energy:                            -0.252522611770518         -6.8715          -158.46          -663.00
                                      --------------------     -----------       ----------      -----------
  Total Bonding Energy:                 -0.252565488798652         -6.8727          -158.49          -663.11


Correction terms (incorporated in energies above; only for test purposes):

1. Indication of fit-quality: 1st-order fit-correction used in the energy (hartree):   0.0001138539
2. Electrostatic (Fit correction):   0.0000000000

Scaled ZORA energy correction, not included in bonding energy (hartree):           -0.0000142431
 NOTE: This scaled ZORA energy correction should only be used to compare two calculations
 in which the only difference in the calculation is the electron configuration.
 Then the difference in energy of this term should be added to the difference in energy of
 the two electron configurations.
 This term should not be used otherwise.
 In practice it is useful only for core excitation energy calculations.



 =========================================
 F R A G M E N T   E N E R G Y   T E R M S  ***  (summed over all fragments)  ***
 =========================================
  

The energy terms below are (parts of) the Total Energy of the fragments from which the molecule
 is built.

Exchange and Correlation
  Exchange LDA:                        -14.423361682369309       -392.4796         -9050.80        -37868.53
  Exchange GGA:                          0.000000000000000          0.0000             0.00             0.00
  Correlation LDA:                      -1.094185394814942        -29.7743          -686.61         -2872.78
  Correlation GGA:                       0.000000000000000          0.0000             0.00             0.00
                                      --------------------     -----------       ----------      -----------
  Total XC:                            -15.517547077184251       -422.2539         -9737.41        -40741.31
1



 =======================================================
 S F O   P O P U L A T I O N S ,   M O   A N A L Y S I S
 =======================================================
  
 A Mulliken population analysis is performed on (input-)selected MOs. All populations refer to SFOs.
 BAS populations may have been printed directly after the SCF part.


                                       === A ===


 SFO contributions (%) per orbital
 (multiplication by the orbital occupation yields the SFO Gross Populations)

 Orb.:        1      2      3      4      5      6      7      8      9     10
 occup:     2.00   2.00   2.00   2.00   2.00   0.00   2.00   0.00   0.00   0.00
 CF+SFO     ----   ----   ----   ----   ----   ----   ----   ----   ----   ----
 ------
      3:   41.30  50.28   9.42   0.00   0.00   0.00   0.00   3.80  -0.00  -0.98
      4:   -0.46  -0.85   0.23   0.00  -0.00   0.00   0.00  -2.43   0.00  -0.34
      5:    9.70   1.82  39.43   0.55  -0.00   0.55   0.00  50.44  -0.00  -0.81
      6:   -0.65  -1.26   0.48  -0.00   0.00  -0.00  -0.00  -2.36   0.54  51.55
      7:    0.11   0.02   0.44  49.71   0.00  49.72   0.00   0.56  -0.26  -0.01
      8:   -0.01  -0.01   0.01  -0.26  -0.00  -0.27  -0.00  -0.03  49.71   0.56
      9:   -0.00  -0.00  -0.00   0.00  50.19   0.00  50.39   0.00  -0.00   0.00
     11:   41.30  50.28   9.42   0.00  -0.00   0.00   0.00   3.80  -0.00  -0.97
     12:   -0.46  -0.85   0.23   0.00   0.00   0.00  -0.00  -2.43   0.00  -0.34
     13:    9.70   1.82  39.43   0.55  -0.00   0.55   0.00  50.44  -0.00  -0.81
     14:   -0.65  -1.26   0.48  -0.00   0.00  -0.00  -0.00  -2.36   0.54  51.55
     15:    0.11   0.02   0.44  49.71   0.00  49.72   0.00   0.56  -0.26  -0.01
     16:   -0.01  -0.01   0.01  -0.26  -0.00  -0.27  -0.00  -0.03  49.71   0.56
     17:   -0.00  -0.00  -0.00   0.00  50.19   0.00  50.39   0.00  -0.00  -0.00


 Summation over all MOs, multiplied by occupation: Total SFO Gross Populations in this Irrep
 ===========================================================================================

    -0.00   -0.00    2.02   -0.02    1.03   -0.03    1.01   -0.01    2.01   -0.01    2.02   -0.02
     1.03   -0.03    1.01   -0.01    2.01   -0.01



 List of all MOs, ordered by energy, with the most significant SFO gross populations
 ===================================================================================

 Each percentage contribution in the table below corres ponds to the indicated SFO.
 In general, a SFO may be a linear combination of several Fragment Orbitals on the same,
 or on symmetry-related Fragments. Only the first 'member' of such a combination is
 specified here. A full definition of all SFOs is given in an earlier part of the output.
 The numbering of the SFOs in this table does NOT include the Core Orbitals, and starts
 from one for each symmetry representation, as in the SFO definition list earlier.

       E(eV)  Occ       MO           %     SFO (first member)   E(eV)  Occ   Fragment
 -------------------------------------------------------------------------------------

     -21.164  2.00     2 A         50.28%     1 S             -23.977  2.00     2 O
                                   50.28%     1 S             -23.977  2.00     1 O
                                    1.82%     1 P:x            -9.443  1.33     2 O
                                    1.82%     1 P:x            -9.443  1.33     1 O
                                   -1.26%     2 P:x            21.860  0.00     2 O
                                   -1.26%     2 P:x            21.860  0.00     1 O
     -13.569  2.00     3 A         39.43%     1 P:x            -9.443  1.33     1 O
                                   39.43%     1 P:x            -9.443  1.33     2 O
                                    9.42%     1 S             -23.977  2.00     1 O
                                    9.42%     1 S             -23.977  2.00     2 O
     -13.434  2.00     4 A         49.71%     1 P:y            -9.443  1.33     2 O
                                   49.71%     1 P:y            -9.443  1.33     1 O
     -12.200  2.00     5 A         50.19%     1 P:z            -9.443  1.33     1 O
                                   50.19%     1 P:z            -9.443  1.33     2 O
      -8.312  0.00     6 A         49.72%     1 P:y            -9.443  1.33     1 O
                                   49.72%     1 P:y            -9.443  1.33     2 O
      -7.012  2.00     7 A         50.39%     1 P:z            -9.443  1.33     2 O
                                   50.39%     1 P:z            -9.443  1.33     1 O



 =======================================================================
 Electrostatic potential at the Nuclei due to electrons and other nuclei
 =======================================================================
  
         Atom                  Potential
         ----                  ---------
     1)   O                  22.15311900
     2)   O                  22.15311903
 Mulliken charges used for AMS results%charges...


    =====================
     CALCULATION RESULTS
    =====================

Energy (hartree)            -0.25256549


--------------
Atomic charges
--------------
  Index   Atom    Charge
      1      O    0.0000
      2      O   -0.0000


Dipole moment vector    (Debye):     0.00000012   -0.00000001    0.00000007
              magnitude (Debye):     0.00000014


AMS application finished. Exiting.
NORMAL TERMINATION
     Total cpu time:      16.32
  Total system time:       2.91
 Total elapsed time:      21.15
