
:LABEL1: Calculations in /rwthfs/rz/cluster/home/sl119982/CrO2-sp
:LABEL2: on login18-1.hpc.itc.rwth-aachen.de at Wed May 19 12:33:51 CEST 2021
:LABEL3: using WIEN2k_19.1 (Release 12/6/2019) in /home/sl119982/WIEN2k_19.1
:LABEL4: using the command: runsp_lapw -ec 0.0001 -p
 Flat Integration
 New Mode for Coulomb Integral
 Consistent 3/8+Simpson combinations
 Extension of core to zero
 LDM version in phi
 Fifth-order quadrature in outwin


            ---------
:ITE001:  1. ITERATION
            ---------

:NATO :    2 INDEPENDENT AND    6 TOTAL ATOMS IN UNITCELL
       SUBSTANCE: blebleble                                                   

       LATTICE                      = P   
:POT  : POTENTIAL OPTION EX_PBESOL EC_PBESOL VX_PBESOL VC_PBESOL
:LAT  : LATTICE CONSTANTS=  8.33369  8.33369  5.49910    1.571    1.571    1.571
:VOL  : UNIT CELL VOLUME =     381.91503
       MODE OF CALCULATION IS       = RELA
       SPINPOLARIZED CALCULATION
:IFFT  : FFT-parameters:   64   64   48 Factor: 2.00


   CONVERGENCE PARAMETER FOR PSEUDOCHARGE: NCON=  9
   MAXIMAL VALUE OF RMT(JATOM)*ABSK(NKK) : RK  =22.19394


:VKCOUL :  VK-COUL convergence: 0.303E-05
       ATOMNUMBER=  1 Cr         VCOUL-ZERO =  0.30190E-01
:EFG001:                        EFG         =     0.06239   *10**21  V / m**2
                               V20  TOT/SRF=     0.05403     0.08322
                               V22  TOT/SRF=     0.03066     0.07776
                               V22M TOT/SRF=     0.00000     0.00000
                               V21  TOT/SRF=     0.00000     0.00000
                               V21M TOT/SRF=     0.00000     0.00000

             -0.00053    0.00000    0.00000       -0.00053    0.00000    0.00000
              0.00000   -0.06185    0.00000        0.00000   -0.06185    0.00000
              0.00000    0.00000    0.06239        0.00000    0.00000    0.06239

         MAIN DIRECTIONS OF THE EFG   1.0000  0.0000  0.0000
                                      0.0000  1.0000  0.0000
                                      0.0000  0.0000  1.0000
:ANG001:  ANGLE WITH OLD X-AXIS =         0.0

:ETA001:                         ASYMM. ETA =     0.98286


       ATOMNUMBER=  2 O          VCOUL-ZERO =  0.36281E+00
:EFG002:                        EFG         =    -0.74412   *10**21  V / m**2
                               V20  TOT/SRF=     0.58225     0.72599
                               V22  TOT/SRF=     0.40795     0.50541
                               V22M TOT/SRF=     0.00000     0.00000
                               V21  TOT/SRF=     0.00000     0.00000
                               V21M TOT/SRF=     0.00000     0.00000

              0.07179    0.00000    0.00000        0.07179    0.00000    0.00000
              0.00000   -0.74412    0.00000        0.00000   -0.74412    0.00000
              0.00000    0.00000    0.67233        0.00000    0.00000    0.67233

         MAIN DIRECTIONS OF THE EFG   1.0000  0.0000  0.0000
                                      0.0000  1.0000  0.0000
                                      0.0000  0.0000  1.0000
:ANG002:  ANGLE WITH OLD X-AXIS =         0.0

:ETA002:                         ASYMM. ETA =     0.80705


     HELLMANN-FEYNMAN-FORCE IN mRy/a.u. = |F|  Fx       Fy             Fz
:FHF001:   1.ATOM      0.000000000000      0.000000000000      0.000000000000      0.000000000000

     HELLMANN-FEYNMAN-FORCE IN mRy/a.u. = |F|  Fx       Fy             Fz
:FHF002:   2.ATOM    117.892068245253      0.000000000000      0.000000000000   -117.892068245253

:FIT001: LUSE= 13 SIGMA OF V-XC FIT FOR ATOM  1  0.8063650E-02
:FIT001: LUSE= 13 SIGMA OF V-XC FIT FOR ATOM  1  0.2580152E-02
:FIT002: LUSE= 13 SIGMA OF V-XC FIT FOR ATOM  2  0.5463057E-02
:FIT002: LUSE= 13 SIGMA OF V-XC FIT FOR ATOM  2  0.4557848E-02
:DEN  : DENSITY INTEGRAL  =         -2059.54910341   (Ry)
       ELS_POTENTIAL_AT Z=0 and Z=0.5:  -0.47424  -0.47424
       ELS_POTENTIAL_AT Y=0 and Y=0.5:   0.00000   0.00000
:VZERO:v0,v0c,v0x  -1.43066  -0.47424  -0.95641 v5,v5c,v5x  -1.43066  -0.47424  -0.95641
:VZERY:v0,v0c,v0x  -0.91800   0.00000  -0.91800 v5,v5c,v5x  -0.91800   0.00000  -0.91800
:VZERX:v0,v0c,v0x  -1.24417  -0.44021  -0.80395 v5,v5c,v5x  -1.24417  -0.44021  -0.80395
:LMAX-WF:   10   Non-Spherical LMAX:   4

          ATOMIC SPHERE DEPENDENT PARAMETERS FOR ATOM  Cr        
:e__0001: OVERALL ENERGY PARAMETER IS    0.3000
          OVERALL BASIS SET ON ATOM IS LAPW
:E0_0001: E( 0)=    0.3000
             APW+lo
:E0_0001: E( 0)=   -4.5400   E(BOTTOM)=   -4.854   E(TOP)=   -4.226  2  3   156
             LOCAL ORBITAL
:E1_0001: E( 1)=    0.3000
             APW+lo
:E1_0001: E( 1)=   -2.4712   E(BOTTOM)=   -2.946   E(TOP)=   -1.997  1  2   156
             LOCAL ORBITAL
:E2_0001: E( 2)=    0.3000   E(BOTTOM)=    0.005   E(TOP)= -200.000  0 -1   101
             APW+lo

          ATOMIC SPHERE DEPENDENT PARAMETERS FOR ATOM  O         
:e__0002: OVERALL ENERGY PARAMETER IS    0.3000
          OVERALL BASIS SET ON ATOM IS LAPW
:E0_0002: E( 0)=    0.7000
             APW+lo
:E0_0002: E( 0)=   -1.0819   E(BOTTOM)=   -2.212   E(TOP)=    0.048  1  2   216
             LOCAL ORBITAL
:E1_0002: E( 1)=    0.3000
             APW+lo

       K=   0.06250   0.06250   0.03846            1
:RKM  : MATRIX SIZE   533LOs:  46  RKM= 6.98  WEIGHT= 8.00  PGR:    
       EIGENVALUES ARE:
:EIG00001:      -4.4801687   -4.4788509   -2.4106406   -2.4103420   -2.4011516
:EIG00006:      -2.3992827   -2.3988461   -2.3985444   -1.2091385   -1.1034519
:EIG00011:      -1.0751564   -1.0735412   -0.2405334   -0.1680701   -0.1577452
:EIG00016:      -0.0645352   -0.0645223   -0.0419521   -0.0379849   -0.0214095
:EIG00021:       0.0729298    0.0917838    0.0968345    0.1279127    0.6416077
:EIG00026:       0.6640081    0.7124078    0.7207244    0.7236476    0.8258442
:EIG00031:       0.8594454    0.9084890    0.9350280    0.9386108    1.0220124
:EIG00036:       1.1804964    1.1847793    1.3975790    1.5228635    1.5455776
:EIG00041:       1.6455945    1.7638051    1.7839563    1.7977045    1.8789894
       ********************************************************

:KPT   :      NUMBER OF K-POINTS:    70
:LMAX-WF:   10   Non-Spherical LMAX:   4

          ATOMIC SPHERE DEPENDENT PARAMETERS FOR ATOM  Cr        
:e__0001: OVERALL ENERGY PARAMETER IS    0.3000
          OVERALL BASIS SET ON ATOM IS LAPW
:E0_0001: E( 0)=    0.3000
             APW+lo
:E0_0001: E( 0)=   -4.4752   E(BOTTOM)=   -4.789   E(TOP)=   -4.162  2  3   171
             LOCAL ORBITAL
:E1_0001: E( 1)=    0.3000
             APW+lo
:E1_0001: E( 1)=   -2.4059   E(BOTTOM)=   -2.879   E(TOP)=   -1.933  1  2   159
             LOCAL ORBITAL
:E2_0001: E( 2)=    0.3000   E(BOTTOM)=    0.075   E(TOP)= -200.000  0 -1    98
             APW+lo

          ATOMIC SPHERE DEPENDENT PARAMETERS FOR ATOM  O         
:e__0002: OVERALL ENERGY PARAMETER IS    0.3000
          OVERALL BASIS SET ON ATOM IS LAPW
:E0_0002: E( 0)=    0.7000
             APW+lo
:E0_0002: E( 0)=   -0.8107   E(BOTTOM)=   -1.969   E(TOP)=    0.348  1  2   214
             LOCAL ORBITAL
:E1_0002: E( 1)=    0.3000
             APW+lo

       K=   0.06250   0.06250   0.03846            1
:RKM  : MATRIX SIZE   533LOs:  46  RKM= 6.98  WEIGHT= 8.00  PGR:    
       EIGENVALUES ARE:
:EIG00001:      -4.4145432   -4.4134469   -2.3412244   -2.3409967   -2.3334150
:EIG00006:      -2.3317389   -2.3310826   -2.3308402   -0.9723520   -0.8538320
:EIG00011:      -0.8262359   -0.8247823   -0.0208543    0.0412937    0.0623458
:EIG00016:       0.1646901    0.1651268    0.1968855    0.2014710    0.2235323
:EIG00021:       0.3333794    0.3535695    0.3597526    0.3906113    0.7459347
:EIG00026:       0.7579579    0.7956920    0.8043245    0.8079049    0.9334226
:EIG00031:       0.9539117    1.0460517    1.0508823    1.0813688    1.1462109
:EIG00036:       1.3457901    1.3473234    1.5734172    1.6533710    1.6889373
:EIG00041:       1.8474379    1.9084841    1.9611188    1.9708423
       ********************************************************

:KPT   :      NUMBER OF K-POINTS:    70
:GAP (global)   :    0.0    Ry =     0.0   eV (metal)
:GAP (this spin):    0.0    Ry =     0.0   eV (metal)
         Bandranges (emin - emax) and occupancy:
:BAN00020:  20   -0.038646    0.026669  1.00000000
:BAN00021:  21   -0.015149    0.072930  1.00000000
:BAN00022:  22   -0.005786    0.091784  1.00000000
:BAN00023:  23    0.038278    0.096835  1.00000000
:BAN00024:  24    0.041966    0.127913  1.00000000
:BAN00025:  25    0.641608    0.710473  1.00000000
:BAN00026:  26    0.660647    0.728438  1.00000000
:BAN00027:  27    0.702583    0.760762  0.93708567
:BAN00028:  28    0.719200    0.769892  0.75524082
:BAN00029:  29    0.721107    0.778816  0.29462734
:BAN00030:  30    0.746552    0.825844  0.00673426
:BAN00031:  31    0.859445    0.921858  0.00000000
:BAN00032:  32    0.882920    0.923772  0.00000000
:BAN00033:  33    0.914473    0.978113  0.00000000
:BAN00034:  34    0.930565    0.993576  0.00000000
:BAN00035:  35    1.000795    1.225915  0.00000000
        Energy to separate low and high energystates:    0.59161


:NOE  : NUMBER OF ELECTRONS          =   52.000

:FER  : F E R M I - ENERGY(TETRAH.M.)=   0.7498855261
:GMA  : POTENTIAL AND CHARGE CUT-OFF  12.00 Ry**.5
 
:POS001: ATOM   -1 X,Y,Z = 0.50000 0.50000 0.50000  MULT= 2  ZZ= 24.000  Cr
 
       LMMAX 10
       LM=   0 0  2 0  2 2  4 0  4 2  4 4  6 0  6 2  6 4  6 6
 
:CHA001: TOTAL VALENCE CHARGE INSIDE SPHERE   1 =   5.6889    (RMT=  1.8500 )
:PCS001: PARTIAL CHARGES SPHERE =  1 S,P,D,F,PX,PY,PZ,D-Z2,D-X2Y2,D-XY,D-XZ,D-YZ
:QTL001: 1.0298 2.9692 1.6710 0.0153 0.9921 0.9866 0.9905 0.3699 0.2379 0.3795 0.5731 0.1106
        Q-s-low E-s-low   Q-p-low E-p-low   Q-d-low E-d-low   Q-f-low E-f-low
:EPL001:  1.0276 -4.3038    2.9675 -2.3352    0.2350 -0.1560    0.0143 -0.1724
        Q-s-hi  E-s-hi    Q-p-hi  E-p-hi    Q-d-hi  E-d-hi    Q-f-hi  E-f-hi
:EPH001:  0.0022  0.6867    0.0018  0.7075    1.4360  0.7097    0.0009  0.7097
 
                      VXX         VYY         VZZ       UP TO R
:VZZ001:            -1.40571     3.47275    -2.06704       1.850
 
:POS002: ATOM   -2 X,Y,Z = 0.20000 0.80000 0.50000  MULT= 4  ZZ=  8.000  O
 
       LMMAX 16
       LM=   0 0  1 0  2 0  2 2  3 0  3 2  4 0  4 2  4 4  5 0  5 2  5 4  6 0  6 2  6 4  6 6
 
:CHA002: TOTAL VALENCE CHARGE INSIDE SPHERE   2 =   3.1405    (RMT=  1.6700 )
:PCS002: PARTIAL CHARGES SPHERE =  2 S,P,D,F,PX,PY,PZ,D-Z2,D-X2Y2,D-XY,D-XZ,D-YZ
:QTL002: 0.8489 2.2634 0.0236 0.0033 0.7506 0.7627 0.7499 0.0064 0.0022 0.0030 0.0062 0.0057
        Q-s-low E-s-low   Q-p-low E-p-low   Q-d-low E-d-low   Q-f-low E-f-low
:EPL002:  0.8477 -1.1109    2.2189 -0.0450    0.0045 -1.2561    0.0014 -1.4862
        Q-s-hi  E-s-hi    Q-p-hi  E-p-hi    Q-d-hi  E-d-hi    Q-f-hi  E-f-hi
:EPH002:  0.0011  0.7034    0.0446  0.7110    0.0190  0.7032    0.0019  0.7171
 
                      VXX         VYY         VZZ       UP TO R
:VZZ002:             0.42761    -1.14805     0.72045       1.670
 
:CHA  : TOTAL VALENCE CHARGE INSIDE UNIT CELL =      27.993688
 
:SUM  : SUM OF EIGENVALUES =         -25.531337597
 
:GAP (global)   :    0.0    Ry =     0.0   eV (metal)
:GAP (this spin):    0.0    Ry =     0.0   eV (metal)
         Bandranges (emin - emax) and occupancy:
:BAN00015:  15    0.044439    0.146024  1.00000000
:BAN00016:  16    0.052115    0.165985  1.00000000
:BAN00017:  17    0.128056    0.226447  1.00000000
:BAN00018:  18    0.141517    0.230395  1.00000000
:BAN00019:  19    0.168468    0.258399  1.00000000
:BAN00020:  20    0.199272    0.269185  1.00000000
:BAN00021:  21    0.222587    0.333379  1.00000000
:BAN00022:  22    0.227747    0.353570  1.00000000
:BAN00023:  23    0.283752    0.359753  1.00000000
:BAN00024:  24    0.288725    0.390611  1.00000000
:BAN00025:  25    0.745935    0.814585  0.00631191
:BAN00026:  26    0.757314    0.834810  0.00000000
:BAN00027:  27    0.790699    0.855741  0.00000000
:BAN00028:  28    0.804324    0.856033  0.00000000
:BAN00029:  29    0.807905    0.874356  0.00000000
:BAN00030:  30    0.839131    0.933423  0.00000000
        Energy to separate low and high energystates:   -0.07085


:NOE  : NUMBER OF ELECTRONS          =   52.000

:FER  : F E R M I - ENERGY(TETRAH.M.)=   0.7498855261
:GMA  : POTENTIAL AND CHARGE CUT-OFF  12.00 Ry**.5
 
:POS001: ATOM   -1 X,Y,Z = 0.50000 0.50000 0.50000  MULT= 2  ZZ= 24.000  Cr
 
       LMMAX 10
       LM=   0 0  2 0  2 2  4 0  4 2  4 4  6 0  6 2  6 4  6 6
 
:CHA001: TOTAL VALENCE CHARGE INSIDE SPHERE   1 =   4.3736    (RMT=  1.8500 )
:PCS001: PARTIAL CHARGES SPHERE =  1 S,P,D,F,PX,PY,PZ,D-Z2,D-X2Y2,D-XY,D-XZ,D-YZ
:QTL001: 1.0341 2.9777 0.3430 0.0152 0.9949 0.9898 0.9932 0.0595 0.0914 0.0401 0.0389 0.1129
        Q-s-low E-s-low   Q-p-low E-p-low   Q-d-low E-d-low   Q-f-low E-f-low
:EPL001:  0.9953 -4.3745    2.9043 -2.3204    0.0217 -0.8546    0.0023 -0.8709
        Q-s-hi  E-s-hi    Q-p-hi  E-p-hi    Q-d-hi  E-d-hi    Q-f-hi  E-f-hi
:EPH001:  0.0387  0.0986    0.0735  0.1751    0.3213  0.1627    0.0130  0.2426
 
                      VXX         VYY         VZZ       UP TO R
:VZZ001:            -1.45636     1.57434    -0.11798       1.850
 
:POS002: ATOM   -2 X,Y,Z = 0.20000 0.80000 0.50000  MULT= 4  ZZ=  8.000  O
 
       LMMAX 16
       LM=   0 0  1 0  2 0  2 2  3 0  3 2  4 0  4 2  4 4  5 0  5 2  5 4  6 0  6 2  6 4  6 6
 
:CHA002: TOTAL VALENCE CHARGE INSIDE SPHERE   2 =   2.9319    (RMT=  1.6700 )
:PCS002: PARTIAL CHARGES SPHERE =  2 S,P,D,F,PX,PY,PZ,D-Z2,D-X2Y2,D-XY,D-XZ,D-YZ
:QTL002: 0.8348 2.0896 0.0055 0.0015 0.6928 0.7019 0.6948 0.0018 0.0007 0.0007 0.0015 0.0008
        Q-s-low E-s-low   Q-p-low E-p-low   Q-d-low E-d-low   Q-f-low E-f-low
:EPL002:  0.8238 -0.8732    0.0068 -2.1781    0.0023 -2.3688    0.0008 -2.4812
        Q-s-hi  E-s-hi    Q-p-hi  E-p-hi    Q-d-hi  E-d-hi    Q-f-hi  E-f-hi
:EPH002:  0.0107  0.1608    2.0830  0.2018    0.0033  0.2015    0.0008  0.1736
 
                      VXX         VYY         VZZ       UP TO R
:VZZ002:             0.41733    -0.83130     0.41396       1.670
 
:CHA  : TOTAL VALENCE CHARGE INSIDE UNIT CELL =      24.006312
 
:SUM  : SUM OF EIGENVALUES =         -23.991966453
 

        1.ATOM      Cr                    4 CORE STATES
:1S 001: 1S                -430.668987950 Ry
:2S 001: 2S                 -47.970902834 Ry
:2PP001: 2P*                -40.597488364 Ry
:2P 001: 2P                 -39.963171246 Ry

        2.ATOM      O                     1 CORE STATES
       CORE-FORCE in mRy/a.u. = |F|      Fx             Fy             Fz
:FCO002:   2.ATOM     30.178597286966      0.000000000000      0.000000000000     30.178597286966

:1S 002: 1S                 -36.878915539 Ry

        1.ATOM      Cr                    4 CORE STATES
:1S 001: 1S                -430.667042257 Ry
:2S 001: 2S                 -47.946489928 Ry
:2PP001: 2P*                -40.578719998 Ry
:2P 001: 2P                 -39.943960574 Ry

        2.ATOM      O                     1 CORE STATES
       CORE-FORCE in mRy/a.u. = |F|      Fx             Fy             Fz
:FCO002:   2.ATOM     29.923345853693      0.000000000000      0.000000000000     29.923345853693

:1S 002: 1S                 -36.783040106 Ry
:CINT001 Core Integral Atom   1 Up    5.000000 Dn   5.000000 Total  10.000000
:CINT002 Core Integral Atom   2 Up    1.000000 Dn   1.000000 Total   2.000000

       DENSITY AT NUCLEUS
        JATOM        VALENCE       SEMI-CORE          CORE           TOTAL
:RTO001:   1      137.301523        0.000000    11399.463307    11536.764831
:RTO002:   2       15.973690        0.000000      302.067719      318.041408

       HYPERFINE FIELDS FOR THOMSON RADIUS
:HFF001:          -64.602           0.000        -131.054        -195.656 (KGAUSS)
:HFF002:          222.602           0.000        -262.406         -39.803 (KGAUSS)
     
       CHARGES OF NEW CHARGE DENSITY
:NTO   : INTERSTITIAL     UP =     4.054266 DN =     3.531508 TOT =     7.585775
:NPC   : PW Pseudocharge  UP =    11.367458 DN =    10.365041 TOT =    21.732498
:NTO001: CHARGE SPHERE  1 UP =    10.688902 DN =     9.373581 TOT =    20.062483
:NTO002: CHARGE SPHERE  2 UP =     4.140402 DN =     3.931908 TOT =     8.072310

:NEC01: NUCLEAR AND ELECTRONIC CHARGE     80.00000    79.99998
     
       CHARGES OF OLD CHARGE DENSITY
:OTO   : INTERSTITIAL     UP =     5.541035 DN =     2.475226 TOT =     8.016260
:OPC   : PW Pseudocharge  UP =    13.138088 DN =     7.729609 TOT =    20.867697
:OTO001: CHARGE SPHERE  1 UP =    11.375326 DN =    10.470260 TOT =    21.845586
:OTO002: CHARGE SPHERE  2 UP =     4.427332 DN =     2.646067 TOT =     7.073399

:NEC02: NUCLEAR AND ELECTRONIC CHARGE     80.00000    80.00103
     
       CONVERGENCE TEST
:DTO001: DIFFERENCE SPHERE  1 UP =  0.6621337 DN =  1.1788293 TOT =  1.8409630
:DTO002: DIFFERENCE SPHERE  2 UP =  0.2905498 DN =  1.4121249 TOT =  1.7026748

:DIS  :  CHARGE DISTANCE       ( 1.4121249 for atom    2 spin 2)      3.4975417
 PW Mixed is          325
 
******************************************************
* MULTISECANT MIXING VER9 RELEASE 10.4.0              *
* Standard Mode with controls                        *
* Fixed density scale                                *
* Regularization       1.000E-04                     *
* Trust Upper Limit    5.000E+00                     *
* Max Number of Memory Steps    8                    *
******************************************************
 
:PWTMP   2.5083E+02  3.8400E+02  3.8192E+02
:PLANE:  PW TOTAL      8.7173 DISTAN   2.62E+00  3.00E+01 %
:CHARG:  CLM/ATOM    103.1227 DISTAN   1.77E+00  1.72E+00 %
INFO: Reducing dbase  2.50000E-02 3.49754E+00 1.33678E-02
 
Step History
        DMIX         DMIXT        Red     Pred      Trust     Lambda    MagRel    MagAbs     Beta
  1   3.5000E-02   3.5000E-02 -1.00E+00  1.00E+00 -1.00E+01  1.00E+00  3.50E-02  3.50E-02  1.00E+00
:INFO :  Note, Pratt in use
INFO: Reducing dbase  1.33678E-02 3.49754E+00 7.14788E-03
:TRUST:  Step 1.53E-02  Charge 7.50E-02 (e) CTO  2.50E-01 (e) PW  3.50E-01 (e)
:DIRM :  MEMORY  0/ 8 SCALE   1.000
Performing Pseudo Compensation
Final Pseudo Compensation Rescaling     9.99248E-01
Final Pseudo Compensation Rescaling     1.00005E+00
:MIX  :   PRATT  REGULARIZATION:  1.00E-04 GREED: 0.01018                  
     
       CHARGES OF MIXED CHARGE DENSITY
:CTO   : INTERSTITIAL     UP =     5.525190 DN =     2.485667 TOT =     8.010857
:CPC   : PW Pseudocharge  UP =    12.603985 DN =     8.885173 TOT =    21.489158
:CTO001: CHARGE SPHERE  1 UP =    11.368336 DN =    10.459092 TOT =    21.827428
:CTO002: CHARGE SPHERE  2 UP =     4.424410 DN =     2.659161 TOT =     7.083572

       SPIN MAGNETIC MOMENTS OF MIXED CHARGE DENSITY
:MMINT:  MAGNETIC MOMENT IN INTERSTITIAL  =    3.03952
:MMI001: MAGNETIC MOMENT IN SPHERE   1    =    0.90924
:MMI002: MAGNETIC MOMENT IN SPHERE   2    =    1.76525
:MMTOT:  SPIN MAGNETIC MOMENT IN CELL     =   11.91901

:NEC03: NUCLEAR AND ELECTRONIC CHARGE     80.00000    80.00000

PW CHANGE     H    K    L      Current       Change    Residue
:PUP001:      0    0    0  4.74691312E-02 -1.434E-03 -8.523E-03
:PUP003:     -1   -1    0  4.11458360E-02 -3.212E-03 -5.907E-03
:PUP005:     -1    0   -1  1.52238130E-02 -4.598E-03 -6.019E-03
:PUP006:     -2    0    0 -1.62380256E-02 -1.614E-03 -1.451E-03
:PUP007:     -1   -1   -1 -7.48794899E-02  1.707E-03  4.062E-03
:PUP008:     -2   -1    0  3.98308267E-02 -9.642E-04 -2.237E-03
:PUP010:     -2   -1   -1  5.64378730E-02 -6.834E-03 -8.193E-03
:PUP011:     -2   -2    0  1.95352520E-02 -1.774E-03 -1.808E-03
:PUP013:      0    0   -2  9.88867589E-03 -8.270E-04 -7.560E-04
:PUP014:     -3   -1    0  2.80656844E-03 -1.885E-03 -2.169E-03
:PUP016:     -2   -2   -1 -7.67577964E-03  2.752E-04  2.898E-04
:PUP017:     -1   -1   -2  8.01736451E-03 -1.801E-03 -1.616E-03
  
:PDN001:      0    0    0  2.97732204E-02  3.056E-03  9.670E-03
:PDN003:     -1   -1    0  3.18119362E-02 -4.045E-04 -1.037E-03
:PDN005:     -1    0   -1  1.68366003E-02 -8.815E-03 -1.939E-02
:PDN006:     -2    0    0 -9.80529370E-03 -8.973E-03 -1.716E-02
:PDN007:     -1   -1   -1 -5.72383635E-02 -1.766E-02 -3.277E-02
:PDN008:     -2   -1    0  3.12635112E-02  1.018E-02  1.721E-02
:PDN010:     -2   -1   -1  5.19382582E-02  7.163E-03  1.075E-02
:PDN011:     -2   -2    0  1.79859924E-02  4.508E-03  6.241E-03
:PDN013:      0    0   -2  9.48370325E-03  3.104E-03  3.362E-03
:PDN014:     -3   -1    0  2.98381735E-03 -1.872E-03 -4.086E-04
:PDN016:     -2   -2   -1 -7.74792685E-03 -3.625E-03 -4.418E-03
:PDN017:     -1   -1   -2  8.46965460E-03  2.005E-03  3.998E-03

:ENE  : ********** TOTAL ENERGY IN Ry =        -4800.20801998

       TOTAL FORCE IN mRy/a.u. = |F|     Fx             Fy             Fz     with/without FOR in case.in2
:FOR001:   1.ATOM          0.000          0.000          0.000          0.000 partial forces
:FOR002:   2.ATOM         87.841          0.000          0.000        -87.841 partial forces
       TOTAL FORCE WITH RESPECT TO GLOBAL CARTESIAN COORDINATES:
:FCA001:   1.ATOM                         0.000          0.000          0.000 partial forces
:FCA002:   2.ATOM                        62.113        -62.113          0.000 partial forces
       TOTAL FORCE WITH RESPECT TO THE GLOBAL COORDINATE SYSTEM:
:FGL001:   1.ATOM                 0.000000000     0.000000000     0.000000000 partial forces
:FGL002:   2.ATOM                62.113035126   -62.113035126     0.000000000 partial forces
 Flat Integration
 New Mode for Coulomb Integral
 Consistent 3/8+Simpson combinations
 Extension of core to zero
 LDM version in phi
 Fifth-order quadrature in outwin


            ---------
:ITE002:  2. ITERATION
            ---------

:NATO :    2 INDEPENDENT AND    6 TOTAL ATOMS IN UNITCELL
       SUBSTANCE: blebleble                                                   

       LATTICE                      = P   
:POT  : POTENTIAL OPTION EX_PBESOL EC_PBESOL VX_PBESOL VC_PBESOL
:LAT  : LATTICE CONSTANTS=  8.33369  8.33369  5.49910    1.571    1.571    1.571
:VOL  : UNIT CELL VOLUME =     381.91503
       MODE OF CALCULATION IS       = RELA
       SPINPOLARIZED CALCULATION
:IFFT  : FFT-parameters:   64   64   48 Factor: 2.00


   CONVERGENCE PARAMETER FOR PSEUDOCHARGE: NCON=  9
   MAXIMAL VALUE OF RMT(JATOM)*ABSK(NKK) : RK  =22.19394


:VKCOUL :  VK-COUL convergence: 0.197E-05
       ATOMNUMBER=  1 Cr         VCOUL-ZERO =  0.25855E-01
:EFG001:                        EFG         =     0.04053   *10**21  V / m**2
                               V20  TOT/SRF=     0.03510     0.08288
                               V22  TOT/SRF=    -0.01023     0.07612
                               V22M TOT/SRF=     0.00000     0.00000
                               V21  TOT/SRF=     0.00000     0.00000
                               V21M TOT/SRF=     0.00000     0.00000

             -0.03050    0.00000    0.00000       -0.03050    0.00000    0.00000
              0.00000   -0.01003    0.00000        0.00000   -0.01003    0.00000
              0.00000    0.00000    0.04053        0.00000    0.00000    0.04053

         MAIN DIRECTIONS OF THE EFG   1.0000  0.0000  0.0000
                                      0.0000  1.0000  0.0000
                                      0.0000  0.0000  1.0000
:ANG001:  ANGLE WITH OLD X-AXIS =         0.0

:ETA001:                         ASYMM. ETA =     0.50503


       ATOMNUMBER=  2 O          VCOUL-ZERO =  0.36472E+00
:EFG002:                        EFG         =    -0.77529   *10**21  V / m**2
                               V20  TOT/SRF=     0.60040     0.73170
                               V22  TOT/SRF=     0.42864     0.51009
                               V22M TOT/SRF=     0.00000     0.00000
                               V21  TOT/SRF=     0.00000     0.00000
                               V21M TOT/SRF=     0.00000     0.00000

              0.08200    0.00000    0.00000        0.08200    0.00000    0.00000
              0.00000   -0.77529    0.00000        0.00000   -0.77529    0.00000
              0.00000    0.00000    0.69328        0.00000    0.00000    0.69328

         MAIN DIRECTIONS OF THE EFG   1.0000  0.0000  0.0000
                                      0.0000  1.0000  0.0000
                                      0.0000  0.0000  1.0000
:ANG002:  ANGLE WITH OLD X-AXIS =         0.0

:ETA002:                         ASYMM. ETA =     0.78846


     HELLMANN-FEYNMAN-FORCE IN mRy/a.u. = |F|  Fx       Fy             Fz
:FHF001:   1.ATOM      0.000000000000      0.000000000000      0.000000000000      0.000000000000

     HELLMANN-FEYNMAN-FORCE IN mRy/a.u. = |F|  Fx       Fy             Fz
:FHF002:   2.ATOM    119.113791903252      0.000000000000      0.000000000000   -119.113791903252

:FIT001: LUSE= 13 SIGMA OF V-XC FIT FOR ATOM  1  0.8056157E-02
:FIT001: LUSE= 13 SIGMA OF V-XC FIT FOR ATOM  1  0.2638394E-02
:FIT002: LUSE= 13 SIGMA OF V-XC FIT FOR ATOM  2  0.5422568E-02
:FIT002: LUSE= 13 SIGMA OF V-XC FIT FOR ATOM  2  0.4468834E-02
:DEN  : DENSITY INTEGRAL  =         -2058.89793569   (Ry)
       ELS_POTENTIAL_AT Z=0 and Z=0.5:  -0.47665  -0.47665
       ELS_POTENTIAL_AT Y=0 and Y=0.5:   0.00000   0.00000
:VZERO:v0,v0c,v0x  -1.42828  -0.47665  -0.95163 v5,v5c,v5x  -1.42828  -0.47665  -0.95163
:VZERY:v0,v0c,v0x  -0.91497   0.00000  -0.91497 v5,v5c,v5x  -0.91497   0.00000  -0.91497
:VZERX:v0,v0c,v0x  -1.18696  -0.39562  -0.79134 v5,v5c,v5x  -1.18696  -0.39562  -0.79134
:LMAX-WF:   10   Non-Spherical LMAX:   4

          ATOMIC SPHERE DEPENDENT PARAMETERS FOR ATOM  Cr        
:e__0001: OVERALL ENERGY PARAMETER IS    0.5000
          OVERALL BASIS SET ON ATOM IS LAPW
:E0_0001: E( 0)=    0.5000
             APW+lo
:E0_0001: E( 0)=   -4.5576   E(BOTTOM)=   -4.871   E(TOP)=   -4.244  2  3   155
             LOCAL ORBITAL
:E1_0001: E( 1)=    0.5000
             APW+lo
:E1_0001: E( 1)=   -2.4880   E(BOTTOM)=   -2.961   E(TOP)=   -2.015  1  2   154
             LOCAL ORBITAL
:E2_0001: E( 2)=    0.5000   E(BOTTOM)=   -0.008   E(TOP)= -200.000  0 -1   108
             APW+lo

          ATOMIC SPHERE DEPENDENT PARAMETERS FOR ATOM  O         
:e__0002: OVERALL ENERGY PARAMETER IS    0.5000
          OVERALL BASIS SET ON ATOM IS LAPW
:E0_0002: E( 0)=    0.9000
             APW+lo
:E0_0002: E( 0)=   -1.0732   E(BOTTOM)=   -2.205   E(TOP)=    0.059  1  2   217
             LOCAL ORBITAL
:E1_0002: E( 1)=    0.5000
             APW+lo

       K=   0.06250   0.06250   0.03846            1
:RKM  : MATRIX SIZE   533LOs:  46  RKM= 6.98  WEIGHT= 8.00  PGR:    
       EIGENVALUES ARE:
:EIG00001:      -4.4979552   -4.4965124   -2.4270145   -2.4267167   -2.4177338
:EIG00006:      -2.4159847   -2.4155441   -2.4152432   -1.2029438   -1.0962687
:EIG00011:      -1.0683608   -1.0667863   -0.2362609   -0.1623477   -0.1537647
:EIG00016:      -0.0592691   -0.0592440   -0.0357572   -0.0316924   -0.0148526
:EIG00021:       0.0805101    0.0997533    0.1048525    0.1366062    0.6316277
:EIG00026:       0.6527900    0.6992910    0.7074757    0.7104277    0.8144122
:EIG00031:       0.8466656    0.9090859    0.9232626    0.9264108    1.0104793
:EIG00036:       1.1810402    1.1850228    1.3981280    1.5166348    1.5434492
:EIG00041:       1.6441599    1.7650628    1.7829384    1.7960779    1.8756097
:EIG00046:       2.0311190    2.1676616    2.1872760
 
       ********************************************************

:KPT   :      NUMBER OF K-POINTS:    70
:LMAX-WF:   10   Non-Spherical LMAX:   4

          ATOMIC SPHERE DEPENDENT PARAMETERS FOR ATOM  Cr        
:e__0001: OVERALL ENERGY PARAMETER IS    0.5000
          OVERALL BASIS SET ON ATOM IS LAPW
:E0_0001: E( 0)=    0.5000
             APW+lo
:E0_0001: E( 0)=   -4.4924   E(BOTTOM)=   -4.805   E(TOP)=   -4.180  2  3   162
             LOCAL ORBITAL
:E1_0001: E( 1)=    0.5000
             APW+lo
:E1_0001: E( 1)=   -2.4222   E(BOTTOM)=   -2.894   E(TOP)=   -1.951  1  2   161
             LOCAL ORBITAL
:E2_0001: E( 2)=    0.5000   E(BOTTOM)=    0.063   E(TOP)= -200.000  0 -1    93
             APW+lo

          ATOMIC SPHERE DEPENDENT PARAMETERS FOR ATOM  O         
:e__0002: OVERALL ENERGY PARAMETER IS    0.5000
          OVERALL BASIS SET ON ATOM IS LAPW
:E0_0002: E( 0)=    0.9000
             APW+lo
:E0_0002: E( 0)=   -0.8049   E(BOTTOM)=   -1.965   E(TOP)=    0.355  1  2   219
             LOCAL ORBITAL
:E1_0002: E( 1)=    0.5000
             APW+lo

       K=   0.06250   0.06250   0.03846            1
:RKM  : MATRIX SIZE   533LOs:  46  RKM= 6.98  WEIGHT= 8.00  PGR:    
       EIGENVALUES ARE:
:EIG00001:      -4.4318696   -4.4306769   -2.3572843   -2.3570557   -2.3495843
:EIG00006:      -2.3479994   -2.3474634   -2.3472232   -0.9677543   -0.8485317
:EIG00011:      -0.8211582   -0.8197374   -0.0183507    0.0447594    0.0640135
:EIG00016:       0.1674478    0.1679303    0.2012255    0.2059408    0.2282897
:EIG00021:       0.3390031    0.3594615    0.3657079    0.3971292    0.7355705
:EIG00026:       0.7462988    0.7826540    0.7913082    0.7949457    0.9211117
:EIG00031:       0.9406477    1.0339832    1.0386709    1.0808130    1.1345733
:EIG00036:       1.3454397    1.3468064    1.5726302    1.6464251    1.6863305
:EIG00041:       1.8439349    1.9095375    1.9584268    1.9678648    2.0174466
       ********************************************************

:KPT   :      NUMBER OF K-POINTS:    70
:GAP (global)   :    0.0    Ry =     0.0   eV (metal)
:GAP (this spin):    0.0    Ry =     0.0   eV (metal)
         Bandranges (emin - emax) and occupancy:
:BAN00020:  20   -0.032385    0.033704  1.00000000
:BAN00021:  21   -0.009126    0.080510  1.00000000
:BAN00022:  22    0.001260    0.099753  1.00000000
:BAN00023:  23    0.045361    0.104853  1.00000000
:BAN00024:  24    0.049331    0.136606  1.00000000
:BAN00025:  25    0.631628    0.699738  1.00000000
:BAN00026:  26    0.649371    0.718306  1.00000000
:BAN00027:  27    0.690895    0.749537  0.93295151
:BAN00028:  28    0.707334    0.756388  0.75365111
:BAN00029:  29    0.708358    0.765070  0.30253417
:BAN00030:  30    0.734638    0.814412  0.00717904
:BAN00031:  31    0.846666    0.909892  0.00000000
:BAN00032:  32    0.870251    0.912101  0.00000000
:BAN00033:  33    0.902989    0.966204  0.00000000
:BAN00034:  34    0.918798    0.982967  0.00000000
:BAN00035:  35    0.991606    1.226770  0.00000000
        Energy to separate low and high energystates:    0.58163


:NOE  : NUMBER OF ELECTRONS          =   52.000

:FER  : F E R M I - ENERGY(TETRAH.M.)=   0.7378032924
:GMA  : POTENTIAL AND CHARGE CUT-OFF  12.00 Ry**.5
 
:POS001: ATOM   -1 X,Y,Z = 0.50000 0.50000 0.50000  MULT= 2  ZZ= 24.000  Cr
 
       LMMAX 10
       LM=   0 0  2 0  2 2  4 0  4 2  4 4  6 0  6 2  6 4  6 6
 
:CHA001: TOTAL VALENCE CHARGE INSIDE SPHERE   1 =   5.7119    (RMT=  1.8500 )
:PCS001: PARTIAL CHARGES SPHERE =  1 S,P,D,F,PX,PY,PZ,D-Z2,D-X2Y2,D-XY,D-XZ,D-YZ
:QTL001: 1.0304 2.9707 1.6920 0.0153 0.9926 0.9872 0.9909 0.3760 0.2432 0.3814 0.5777 0.1137
        Q-s-low E-s-low   Q-p-low E-p-low   Q-d-low E-d-low   Q-f-low E-f-low
:EPL001:  1.0282 -4.3188    2.9688 -2.3512    0.2447 -0.1491    0.0144 -0.1654
        Q-s-hi  E-s-hi    Q-p-hi  E-p-hi    Q-d-hi  E-d-hi    Q-f-hi  E-f-hi
:EPH001:  0.0022  0.6757    0.0019  0.6959    1.4471  0.6980    0.0009  0.6984
 
                      VXX         VYY         VZZ       UP TO R
:VZZ001:            -1.33446     3.48494    -2.15050       1.850
 
:POS002: ATOM   -2 X,Y,Z = 0.20000 0.80000 0.50000  MULT= 4  ZZ=  8.000  O
 
       LMMAX 16
       LM=   0 0  1 0  2 0  2 2  3 0  3 2  4 0  4 2  4 4  5 0  5 2  5 4  6 0  6 2  6 4  6 6
 
:CHA002: TOTAL VALENCE CHARGE INSIDE SPHERE   2 =   3.1304    (RMT=  1.6700 )
:PCS002: PARTIAL CHARGES SPHERE =  2 S,P,D,F,PX,PY,PZ,D-Z2,D-X2Y2,D-XY,D-XZ,D-YZ
:QTL002: 0.8478 2.2548 0.0232 0.0033 0.7477 0.7602 0.7468 0.0063 0.0022 0.0029 0.0062 0.0056
        Q-s-low E-s-low   Q-p-low E-p-low   Q-d-low E-d-low   Q-f-low E-f-low
:EPL002:  0.8467 -1.1036    2.2100 -0.0388    0.0046 -1.2368    0.0015 -1.4698
        Q-s-hi  E-s-hi    Q-p-hi  E-p-hi    Q-d-hi  E-d-hi    Q-f-hi  E-f-hi
:EPH002:  0.0011  0.6921    0.0449  0.6996    0.0185  0.6915    0.0019  0.7051
 
                      VXX         VYY         VZZ       UP TO R
:VZZ002:             0.44761    -1.21201     0.76441       1.670
 
:CHA  : TOTAL VALENCE CHARGE INSIDE UNIT CELL =      27.996316
 
:SUM  : SUM OF EIGENVALUES =         -25.610547371
 
:GAP (global)   :    0.0    Ry =     0.0   eV (metal)
:GAP (this spin):    0.0    Ry =     0.0   eV (metal)
         Bandranges (emin - emax) and occupancy:
:BAN00015:  15    0.047699    0.149352  1.00000000
:BAN00016:  16    0.055343    0.168760  1.00000000
:BAN00017:  17    0.131387    0.230503  1.00000000
:BAN00018:  18    0.145017    0.234609  1.00000000
:BAN00019:  19    0.172247    0.262902  1.00000000
:BAN00020:  20    0.203390    0.273739  1.00000000
:BAN00021:  21    0.226613    0.339003  1.00000000
:BAN00022:  22    0.232388    0.359461  1.00000000
:BAN00023:  23    0.288715    0.365708  1.00000000
:BAN00024:  24    0.293865    0.397129  1.00000000
:BAN00025:  25    0.735570    0.803531  0.00369054
:BAN00026:  26    0.745827    0.822074  0.00000000
:BAN00027:  27    0.777768    0.842053  0.00000000
:BAN00028:  28    0.791308    0.842513  0.00000000
:BAN00029:  29    0.794946    0.863032  0.00000000
:BAN00030:  30    0.827634    0.921112  0.00000000
        Energy to separate low and high energystates:   -0.06835


:NOE  : NUMBER OF ELECTRONS          =   52.000

:FER  : F E R M I - ENERGY(TETRAH.M.)=   0.7378032924
:GMA  : POTENTIAL AND CHARGE CUT-OFF  12.00 Ry**.5
 
:POS001: ATOM   -1 X,Y,Z = 0.50000 0.50000 0.50000  MULT= 2  ZZ= 24.000  Cr
 
       LMMAX 10
       LM=   0 0  2 0  2 2  4 0  4 2  4 4  6 0  6 2  6 4  6 6
 
:CHA001: TOTAL VALENCE CHARGE INSIDE SPHERE   1 =   4.3887    (RMT=  1.8500 )
:PCS001: PARTIAL CHARGES SPHERE =  1 S,P,D,F,PX,PY,PZ,D-Z2,D-X2Y2,D-XY,D-XZ,D-YZ
:QTL001: 1.0346 2.9790 0.3564 0.0152 0.9952 0.9902 0.9936 0.0609 0.0947 0.0426 0.0411 0.1172
        Q-s-low E-s-low   Q-p-low E-p-low   Q-d-low E-d-low   Q-f-low E-f-low
:EPL001:  0.9956 -4.3913    2.9054 -2.3366    0.0222 -0.8494    0.0023 -0.8648
        Q-s-hi  E-s-hi    Q-p-hi  E-p-hi    Q-d-hi  E-d-hi    Q-f-hi  E-f-hi
:EPH001:  0.0390  0.1020    0.0735  0.1790    0.3340  0.1648    0.0130  0.2471
 
                      VXX         VYY         VZZ       UP TO R
:VZZ001:            -1.48564     1.56899    -0.08336       1.850
 
:POS002: ATOM   -2 X,Y,Z = 0.20000 0.80000 0.50000  MULT= 4  ZZ=  8.000  O
 
       LMMAX 16
       LM=   0 0  1 0  2 0  2 2  3 0  3 2  4 0  4 2  4 4  5 0  5 2  5 4  6 0  6 2  6 4  6 6
 
:CHA002: TOTAL VALENCE CHARGE INSIDE SPHERE   2 =   2.9209    (RMT=  1.6700 )
:PCS002: PARTIAL CHARGES SPHERE =  2 S,P,D,F,PX,PY,PZ,D-Z2,D-X2Y2,D-XY,D-XZ,D-YZ
:QTL002: 0.8340 2.0793 0.0055 0.0015 0.6894 0.6989 0.6911 0.0017 0.0007 0.0007 0.0017 0.0008
        Q-s-low E-s-low   Q-p-low E-p-low   Q-d-low E-d-low   Q-f-low E-f-low
:EPL002:  0.8230 -0.8679    0.0067 -2.1858    0.0022 -2.3768    0.0008 -2.4939
        Q-s-hi  E-s-hi    Q-p-hi  E-p-hi    Q-d-hi  E-d-hi    Q-f-hi  E-f-hi
:EPH002:  0.0110  0.1655    2.0727  0.2059    0.0033  0.2029    0.0008  0.1772
 
                      VXX         VYY         VZZ       UP TO R
:VZZ002:             0.42854    -0.89040     0.46186       1.670
 
:CHA  : TOTAL VALENCE CHARGE INSIDE UNIT CELL =      24.003690
 
:SUM  : SUM OF EIGENVALUES =         -24.058096678
 

        1.ATOM      Cr                    4 CORE STATES
:1S 001: 1S                -430.696523229 Ry
:2S 001: 2S                 -47.997752155 Ry
:2PP001: 2P*                -40.624535552 Ry
:2P 001: 2P                 -39.990199611 Ry

        2.ATOM      O                     1 CORE STATES
       CORE-FORCE in mRy/a.u. = |F|      Fx             Fy             Fz
:FCO002:   2.ATOM     30.802550667647      0.000000000000      0.000000000000     30.802550667647

:1S 002: 1S                 -36.863298278 Ry

        1.ATOM      Cr                    4 CORE STATES
:1S 001: 1S                -430.694604543 Ry
:2S 001: 2S                 -47.973162377 Ry
:2PP001: 2P*                -40.605640337 Ry
:2P 001: 2P                 -39.970858224 Ry

        2.ATOM      O                     1 CORE STATES
       CORE-FORCE in mRy/a.u. = |F|      Fx             Fy             Fz
:FCO002:   2.ATOM     30.547144197346      0.000000000000      0.000000000000     30.547144197346

:1S 002: 1S                 -36.768315060 Ry
:CINT001 Core Integral Atom   1 Up    5.000000 Dn   5.000000 Total  10.000000
:CINT002 Core Integral Atom   2 Up    1.000000 Dn   1.000000 Total   2.000000

       DENSITY AT NUCLEUS
        JATOM        VALENCE       SEMI-CORE          CORE           TOTAL
:RTO001:   1      137.473224        0.000000    11399.495195    11536.968419
:RTO002:   2       15.935879        0.000000      302.059706      317.995585

       HYPERFINE FIELDS FOR THOMSON RADIUS
:HFF001:          -61.898           0.000        -132.554        -194.452 (KGAUSS)
:HFF002:          217.648           0.000        -259.997         -42.348 (KGAUSS)
     
       CHARGES OF NEW CHARGE DENSITY
:NTO   : INTERSTITIAL     UP =     4.051120 DN =     3.542492 TOT =     7.593612
:NPC   : PW Pseudocharge  UP =    11.359217 DN =    10.361216 TOT =    21.720433
:NTO001: CHARGE SPHERE  1 UP =    10.711909 DN =     9.388668 TOT =    20.100577
:NTO002: CHARGE SPHERE  2 UP =     4.130342 DN =     3.920963 TOT =     8.051305

:NEC01: NUCLEAR AND ELECTRONIC CHARGE     80.00000    79.99999
     
       CHARGES OF OLD CHARGE DENSITY
:OTO   : INTERSTITIAL     UP =     5.525194 DN =     2.485680 TOT =     8.010875
:OPC   : PW Pseudocharge  UP =    12.603980 DN =     8.885160 TOT =    21.489140
:OTO001: CHARGE SPHERE  1 UP =    11.368336 DN =    10.459092 TOT =    21.827428
:OTO002: CHARGE SPHERE  2 UP =     4.424410 DN =     2.659161 TOT =     7.083572

:NEC02: NUCLEAR AND ELECTRONIC CHARGE     80.00000    80.00002
     
       CONVERGENCE TEST
:DTO001: DIFFERENCE SPHERE  1 UP =  0.6221576 DN =  1.1514947 TOT =  1.7736523
:DTO002: DIFFERENCE SPHERE  2 UP =  0.3116824 DN =  1.3790247 TOT =  1.6907071

:DIS  :  CHARGE DISTANCE       ( 1.3790247 for atom    2 spin 2)      3.4367110
 PW Mixed is          325
 
******************************************************
* MULTISECANT MIXING VER9 RELEASE 10.4.0              *
* Slow Mode, cautious                                *
* Fixed density scale                                *
* Regularization       1.000E-04                     *
* Step Trust Radius    0.75000                       *
* Trust Upper Limit    2.000E+00                     *
* Max Number of Memory Steps   12                    *
******************************************************
 
:PWTMP   2.5083E+02  3.8400E+02  3.8192E+02
:PLANE:  PW TOTAL      8.8982 DISTAN   1.55E+00  1.75E+01 %
:CHARG:  CLM/ATOM    103.1219 DISTAN   1.73E+00  1.68E+00 %
INFO: Reducing dbase  1.00000E-02 3.43671E+00 5.39422E-03
 
Step History
        DMIX         DMIXT        Red     Pred      Trust     Lambda    MagRel    MagAbs     Beta
  1   3.5000E-02   3.5000E-02 -1.00E+00  1.00E+00 -1.00E+01  1.00E+00  3.50E-02  3.50E-02  1.00E+00
  2   1.0183E-02   1.0183E-02 -1.00E+00  1.00E+00 -1.00E+01  1.00E+00  1.02E-02  3.85E-02  1.00E+00
:JACOBIANS    4.863E-01   8.728E-04
  
:TRUST:  Step 1.83E-02  Charge 7.50E-02 (e) CTO  2.50E-01 (e) PW  3.50E-01 (e)
:DIRM :  MEMORY  1/12 SCALE   1.000
:MIX  :   PRATT  REGULARIZATION:  1.00E-04 GREED: 0.01826  Expand 1.79  0.0183 Step           
     
       CHARGES OF MIXED CHARGE DENSITY
:CTO   : INTERSTITIAL     UP =     5.520475 DN =     2.489023 TOT =     8.009497
:CPC   : PW Pseudocharge  UP =    12.438407 DN =     9.244717 TOT =    21.683125
:CTO001: CHARGE SPHERE  1 UP =    11.366163 DN =    10.455620 TOT =    21.821783
:CTO002: CHARGE SPHERE  2 UP =     4.423502 DN =     2.663232 TOT =     7.086734

       SPIN MAGNETIC MOMENTS OF MIXED CHARGE DENSITY
:MMINT:  MAGNETIC MOMENT IN INTERSTITIAL  =    3.03145
:MMI001: MAGNETIC MOMENT IN SPHERE   1    =    0.91054
:MMI002: MAGNETIC MOMENT IN SPHERE   2    =    1.76027
:MMTOT:  SPIN MAGNETIC MOMENT IN CELL     =   11.89362

:NEC03: NUCLEAR AND ELECTRONIC CHARGE     80.00000    80.00000

PW CHANGE     H    K    L      Current       Change    Residue
:PUP001:      0    0    0  4.70232398E-02 -4.458E-04 -7.119E-03
:PUP003:     -1   -1    0  4.01469342E-02 -9.988E-04 -2.686E-03
:PUP005:     -1    0   -1  1.37940650E-02 -1.430E-03 -1.356E-03
:PUP006:     -2    0    0 -1.67396381E-02 -5.016E-04  2.281E-04
:PUP007:     -1   -1   -1 -7.43484718E-02  5.308E-04  2.432E-03
:PUP008:     -2   -1    0  3.95309183E-02 -2.998E-04 -1.292E-03
:PUP010:     -2   -1   -1  5.43128340E-02 -2.125E-03 -1.440E-03
:PUP011:     -2   -2    0  1.89837817E-02 -5.514E-04 -6.626E-05
:PUP013:      0    0   -2  9.63153137E-03 -2.571E-04  3.710E-05
:PUP014:     -3   -1    0  2.22034982E-03 -5.862E-04 -3.011E-04
:PUP016:     -2   -2   -1 -7.59020051E-03  8.556E-05  2.929E-05
:PUP017:     -1   -1   -2  7.45729538E-03 -5.601E-04  1.464E-04
  
:PDN001:      0    0    0  3.07234307E-02  9.503E-04  6.632E-03
:PDN003:     -1   -1    0  3.16860883E-02 -1.258E-04 -5.905E-04
:PDN005:     -1    0   -1  1.40957895E-02 -2.741E-03 -1.051E-02
:PDN006:     -2    0    0 -1.25951853E-02 -2.790E-03 -8.135E-03
:PDN007:     -1   -1   -1 -6.27279559E-02 -5.490E-03 -1.500E-02
:PDN008:     -2   -1    0  3.44278566E-02  3.164E-03  6.981E-03
:PDN010:     -2   -1   -1  5.41650884E-02  2.227E-03  3.459E-03
:PDN011:     -2   -2    0  1.93875609E-02  1.402E-03  1.692E-03
:PDN013:      0    0   -2  1.04487857E-02  9.651E-04  2.415E-04
:PDN014:     -3   -1    0  2.40190478E-03 -5.819E-04  1.395E-03
:PDN016:     -2   -2   -1 -8.87492128E-03 -1.127E-03 -8.115E-04
:PDN017:     -1   -1   -2  9.09286407E-03  6.232E-04  1.948E-03

:ENE  : ********** TOTAL ENERGY IN Ry =        -4800.12170082

       TOTAL FORCE IN mRy/a.u. = |F|     Fx             Fy             Fz     with/without FOR in case.in2
:FOR001:   1.ATOM          0.000          0.000          0.000          0.000 partial forces
:FOR002:   2.ATOM         88.439          0.000          0.000        -88.439 partial forces
       TOTAL FORCE WITH RESPECT TO GLOBAL CARTESIAN COORDINATES:
:FCA001:   1.ATOM                         0.000          0.000          0.000 partial forces
:FCA002:   2.ATOM                        62.536        -62.536          0.000 partial forces
       TOTAL FORCE WITH RESPECT TO THE GLOBAL COORDINATE SYSTEM:
:FGL001:   1.ATOM                 0.000000000     0.000000000     0.000000000 partial forces
:FGL002:   2.ATOM                62.535777356   -62.535777356     0.000000000 partial forces
 Flat Integration
 New Mode for Coulomb Integral
 Consistent 3/8+Simpson combinations
 Extension of core to zero
 LDM version in phi
 Fifth-order quadrature in outwin


            ---------
:ITE003:  3. ITERATION
            ---------

:NATO :    2 INDEPENDENT AND    6 TOTAL ATOMS IN UNITCELL
       SUBSTANCE: blebleble                                                   

       LATTICE                      = P   
:POT  : POTENTIAL OPTION EX_PBESOL EC_PBESOL VX_PBESOL VC_PBESOL
:LAT  : LATTICE CONSTANTS=  8.33369  8.33369  5.49910    1.571    1.571    1.571
:VOL  : UNIT CELL VOLUME =     381.91503
       MODE OF CALCULATION IS       = RELA
       SPINPOLARIZED CALCULATION
:IFFT  : FFT-parameters:   64   64   48 Factor: 2.00


   CONVERGENCE PARAMETER FOR PSEUDOCHARGE: NCON=  9
   MAXIMAL VALUE OF RMT(JATOM)*ABSK(NKK) : RK  =22.19394


:VKCOUL :  VK-COUL convergence: 0.202E-05
       ATOMNUMBER=  1 Cr         VCOUL-ZERO =  0.24496E-01
:EFG001:                        EFG         =    -0.03983   *10**21  V / m**2
                               V20  TOT/SRF=     0.02925     0.08281
                               V22  TOT/SRF=    -0.02295     0.07561
                               V22M TOT/SRF=     0.00000     0.00000
                               V21  TOT/SRF=     0.00000     0.00000
                               V21M TOT/SRF=     0.00000     0.00000

             -0.03983    0.00000    0.00000       -0.03983    0.00000    0.00000
              0.00000    0.00606    0.00000        0.00000    0.00606    0.00000
              0.00000    0.00000    0.03377        0.00000    0.00000    0.03377

         MAIN DIRECTIONS OF THE EFG   1.0000  0.0000  0.0000
                                      0.0000  1.0000  0.0000
                                      0.0000  0.0000  1.0000
:ANG001:  ANGLE WITH OLD X-AXIS =         0.0

:ETA001:                         ASYMM. ETA =     0.69567


       ATOMNUMBER=  2 O          VCOUL-ZERO =  0.36533E+00
:EFG002:                        EFG         =    -0.78506   *10**21  V / m**2
                               V20  TOT/SRF=     0.60611     0.73354
                               V22  TOT/SRF=     0.43512     0.51159
                               V22M TOT/SRF=     0.00000     0.00000
                               V21  TOT/SRF=     0.00000     0.00000
                               V21M TOT/SRF=     0.00000     0.00000

              0.08518    0.00000    0.00000        0.08518    0.00000    0.00000
              0.00000   -0.78506    0.00000        0.00000   -0.78506    0.00000
              0.00000    0.00000    0.69988        0.00000    0.00000    0.69988

         MAIN DIRECTIONS OF THE EFG   1.0000  0.0000  0.0000
                                      0.0000  1.0000  0.0000
                                      0.0000  0.0000  1.0000
:ANG002:  ANGLE WITH OLD X-AXIS =         0.0

:ETA002:                         ASYMM. ETA =     0.78299


     HELLMANN-FEYNMAN-FORCE IN mRy/a.u. = |F|  Fx       Fy             Fz
:FHF001:   1.ATOM      0.000000000000      0.000000000000      0.000000000000      0.000000000000

     HELLMANN-FEYNMAN-FORCE IN mRy/a.u. = |F|  Fx       Fy             Fz
:FHF002:   2.ATOM    119.536512559741      0.000000000000      0.000000000000   -119.536512559741

:FIT001: LUSE= 13 SIGMA OF V-XC FIT FOR ATOM  1  0.8053530E-02
:FIT001: LUSE= 13 SIGMA OF V-XC FIT FOR ATOM  1  0.2656863E-02
:FIT002: LUSE= 13 SIGMA OF V-XC FIT FOR ATOM  2  0.5409913E-02
:FIT002: LUSE= 13 SIGMA OF V-XC FIT FOR ATOM  2  0.4441752E-02
:DEN  : DENSITY INTEGRAL  =         -2058.69576733   (Ry)
       ELS_POTENTIAL_AT Z=0 and Z=0.5:  -0.47745  -0.47745
       ELS_POTENTIAL_AT Y=0 and Y=0.5:   0.00000   0.00000
:VZERO:v0,v0c,v0x  -1.42738  -0.47745  -0.94993 v5,v5c,v5x  -1.42738  -0.47745  -0.94993
:VZERY:v0,v0c,v0x  -0.91390   0.00000  -0.91390 v5,v5c,v5x  -0.91390   0.00000  -0.91390
:VZERX:v0,v0c,v0x  -1.16791  -0.38191  -0.78600 v5,v5c,v5x  -1.16791  -0.38191  -0.78600
:LMAX-WF:   10   Non-Spherical LMAX:   4

          ATOMIC SPHERE DEPENDENT PARAMETERS FOR ATOM  Cr        
:e__0001: OVERALL ENERGY PARAMETER IS    0.5252
          OVERALL BASIS SET ON ATOM IS LAPW
:E0_0001: E( 0)=    0.5252
             APW+lo
:E0_0001: E( 0)=   -4.5631   E(BOTTOM)=   -4.876   E(TOP)=   -4.250  2  3   156
             LOCAL ORBITAL
:E1_0001: E( 1)=    0.5252
             APW+lo
:E1_0001: E( 1)=   -2.4932   E(BOTTOM)=   -2.966   E(TOP)=   -2.021  1  2   150
             LOCAL ORBITAL
:E2_0001: E( 2)=    0.5252   E(BOTTOM)=   -0.012   E(TOP)= -200.000  0 -1   103
             APW+lo

          ATOMIC SPHERE DEPENDENT PARAMETERS FOR ATOM  O         
:e__0002: OVERALL ENERGY PARAMETER IS    0.5252
          OVERALL BASIS SET ON ATOM IS LAPW
:E0_0002: E( 0)=    0.9252
             APW+lo
:E0_0002: E( 0)=   -1.0705   E(BOTTOM)=   -2.203   E(TOP)=    0.062  1  2   215
             LOCAL ORBITAL
:E1_0002: E( 1)=    0.5252
             APW+lo

       K=   0.06250   0.06250   0.03846            1
:RKM  : MATRIX SIZE   533LOs:  46  RKM= 6.98  WEIGHT= 8.00  PGR:    
       EIGENVALUES ARE:
:EIG00001:      -4.5034901   -4.5020342   -2.4321129   -2.4318167   -2.4229137
:EIG00006:      -2.4211895   -2.4207525   -2.4204533   -1.2009900   -1.0940370
:EIG00011:      -1.0662220   -1.0646584   -0.2349338   -0.1606133   -0.1525262
:EIG00016:      -0.0576409   -0.0576035   -0.0338220   -0.0297269   -0.0128002
:EIG00021:       0.0828895    0.1022513    0.1073665    0.1393191    0.6285679
:EIG00026:       0.6493334    0.6952888    0.7034285    0.7063900    0.8109647
:EIG00031:       0.8427989    0.9091556    0.9199969    0.9228208    1.0071742
:EIG00036:       1.1812794    1.1851670    1.3986414    1.5151330    1.5430228
:EIG00041:       1.6442967    1.7655448    1.7830426    1.7960127    1.8746879
:EIG00046:       2.0315719    2.1674520    2.1869552    2.2251918
 
       ********************************************************

:KPT   :      NUMBER OF K-POINTS:    70
:LMAX-WF:   10   Non-Spherical LMAX:   4

          ATOMIC SPHERE DEPENDENT PARAMETERS FOR ATOM  Cr        
:e__0001: OVERALL ENERGY PARAMETER IS    0.5252
          OVERALL BASIS SET ON ATOM IS LAPW
:E0_0001: E( 0)=    0.5252
             APW+lo
:E0_0001: E( 0)=   -4.4977   E(BOTTOM)=   -4.810   E(TOP)=   -4.186  2  3   165
             LOCAL ORBITAL
:E1_0001: E( 1)=    0.5252
             APW+lo
:E1_0001: E( 1)=   -2.4273   E(BOTTOM)=   -2.898   E(TOP)=   -1.956  1  2   159
             LOCAL ORBITAL
:E2_0001: E( 2)=    0.5252   E(BOTTOM)=    0.059   E(TOP)= -200.000  0 -1   100
             APW+lo

          ATOMIC SPHERE DEPENDENT PARAMETERS FOR ATOM  O         
:e__0002: OVERALL ENERGY PARAMETER IS    0.5252
          OVERALL BASIS SET ON ATOM IS LAPW
:E0_0002: E( 0)=    0.9252
             APW+lo
:E0_0002: E( 0)=   -0.8031   E(BOTTOM)=   -1.963   E(TOP)=    0.357  1  2   219
             LOCAL ORBITAL
:E1_0002: E( 1)=    0.5252
             APW+lo

       K=   0.06250   0.06250   0.03846            1
:RKM  : MATRIX SIZE   533LOs:  46  RKM= 6.98  WEIGHT= 8.00  PGR:    
       EIGENVALUES ARE:
:EIG00001:      -4.4372753   -4.4360723   -2.3623122   -2.3620842   -2.3546544
:EIG00006:      -2.3530895   -2.3525941   -2.3523558   -0.9663788   -0.8469480
:EIG00011:      -0.8196182   -0.8182056   -0.0176537    0.0457484    0.0644494
:EIG00016:       0.1682196    0.1687166    0.2025145    0.2072713    0.2297116
:EIG00021:       0.3407035    0.3612483    0.3675149    0.3991185    0.7323183
:EIG00026:       0.7426624    0.7786090    0.7872779    0.7909364    0.9174112
:EIG00031:       0.9366394    1.0304792    1.0351420    1.0806383    1.1313928
:EIG00036:       1.3453301    1.3466343    1.5728317    1.6447503    1.6856579
:EIG00041:       1.8435430    1.9098313    1.9580623    1.9674110    2.0164621
:EIG00046:       2.2085719
 
       ********************************************************

:KPT   :      NUMBER OF K-POINTS:    70
:GAP (global)   :    0.0    Ry =     0.0   eV (metal)
:GAP (this spin):    0.0    Ry =     0.0   eV (metal)
         Bandranges (emin - emax) and occupancy:
:BAN00020:  20   -0.030429    0.035911  1.00000000
:BAN00021:  21   -0.007224    0.082889  1.00000000
:BAN00022:  22    0.003439    0.102251  1.00000000
:BAN00023:  23    0.047568    0.107366  1.00000000
:BAN00024:  24    0.051621    0.139319  1.00000000
:BAN00025:  25    0.628568    0.696461  1.00000000
:BAN00026:  26    0.645915    0.715218  1.00000000
:BAN00027:  27    0.687309    0.746091  0.93176716
:BAN00028:  28    0.703429    0.752270  0.75332393
:BAN00029:  29    0.704467    0.760930  0.30448260
:BAN00030:  30    0.730900    0.810965  0.00729911
:BAN00031:  31    0.842799    0.906320  0.00000000
:BAN00032:  32    0.866442    0.909156  0.00000000
:BAN00033:  33    0.899578    0.962732  0.00000000
:BAN00034:  34    0.915307    0.979586  0.00000000
:BAN00035:  35    0.988781    1.227234  0.00000000
        Energy to separate low and high energystates:    0.57857


:NOE  : NUMBER OF ELECTRONS          =   52.000

:FER  : F E R M I - ENERGY(TETRAH.M.)=   0.7341192260
:GMA  : POTENTIAL AND CHARGE CUT-OFF  12.00 Ry**.5
 
:POS001: ATOM   -1 X,Y,Z = 0.50000 0.50000 0.50000  MULT= 2  ZZ= 24.000  Cr
 
       LMMAX 10
       LM=   0 0  2 0  2 2  4 0  4 2  4 4  6 0  6 2  6 4  6 6
 
:CHA001: TOTAL VALENCE CHARGE INSIDE SPHERE   1 =   5.7189    (RMT=  1.8500 )
:PCS001: PARTIAL CHARGES SPHERE =  1 S,P,D,F,PX,PY,PZ,D-Z2,D-X2Y2,D-XY,D-XZ,D-YZ
:QTL001: 1.0307 2.9710 1.6981 0.0153 0.9927 0.9872 0.9911 0.3779 0.2450 0.3819 0.5788 0.1147
        Q-s-low E-s-low   Q-p-low E-p-low   Q-d-low E-d-low   Q-f-low E-f-low
:EPL001:  1.0284 -4.3234    2.9692 -2.3562    0.2478 -0.1469    0.0144 -0.1632
        Q-s-hi  E-s-hi    Q-p-hi  E-p-hi    Q-d-hi  E-d-hi    Q-f-hi  E-f-hi
:EPH001:  0.0022  0.6723    0.0019  0.6924    1.4503  0.6944    0.0009  0.6949
 
                      VXX         VYY         VZZ       UP TO R
:VZZ001:            -1.30737     3.48220    -2.17484       1.850
 
:POS002: ATOM   -2 X,Y,Z = 0.20000 0.80000 0.50000  MULT= 4  ZZ=  8.000  O
 
       LMMAX 16
       LM=   0 0  1 0  2 0  2 2  3 0  3 2  4 0  4 2  4 4  5 0  5 2  5 4  6 0  6 2  6 4  6 6
 
:CHA002: TOTAL VALENCE CHARGE INSIDE SPHERE   2 =   3.1270    (RMT=  1.6700 )
:PCS002: PARTIAL CHARGES SPHERE =  2 S,P,D,F,PX,PY,PZ,D-Z2,D-X2Y2,D-XY,D-XZ,D-YZ
:QTL002: 0.8477 2.2519 0.0230 0.0033 0.7466 0.7594 0.7459 0.0063 0.0022 0.0029 0.0062 0.0056
        Q-s-low E-s-low   Q-p-low E-p-low   Q-d-low E-d-low   Q-f-low E-f-low
:EPL002:  0.8465 -1.1014    2.2070 -0.0368    0.0046 -1.2305    0.0015 -1.4642
        Q-s-hi  E-s-hi    Q-p-hi  E-p-hi    Q-d-hi  E-d-hi    Q-f-hi  E-f-hi
:EPH002:  0.0011  0.6887    0.0449  0.6961    0.0184  0.6880    0.0019  0.7015
 
                      VXX         VYY         VZZ       UP TO R
:VZZ002:             0.45277    -1.22659     0.77382       1.670
 
:CHA  : TOTAL VALENCE CHARGE INSIDE UNIT CELL =      27.996873
 
:SUM  : SUM OF EIGENVALUES =         -25.635168420
 
:GAP (global)   :    0.0    Ry =     0.0   eV (metal)
:GAP (this spin):    0.0    Ry =     0.0   eV (metal)
         Bandranges (emin - emax) and occupancy:
:BAN00015:  15    0.048632    0.150300  1.00000000
:BAN00016:  16    0.056271    0.169541  1.00000000
:BAN00017:  17    0.132346    0.231698  1.00000000
:BAN00018:  18    0.146035    0.235856  1.00000000
:BAN00019:  19    0.173358    0.264228  1.00000000
:BAN00020:  20    0.204609    0.275081  1.00000000
:BAN00021:  21    0.227825    0.340703  1.00000000
:BAN00022:  22    0.233761    0.361248  1.00000000
:BAN00023:  23    0.290192    0.367515  1.00000000
:BAN00024:  24    0.295402    0.399119  1.00000000
:BAN00025:  25    0.732318    0.800118  0.00312721
:BAN00026:  26    0.742243    0.818115  0.00000000
:BAN00027:  27    0.773751    0.837845  0.00000000
:BAN00028:  28    0.787278    0.838326  0.00000000
:BAN00029:  29    0.790936    0.859607  0.00000000
:BAN00030:  30    0.824109    0.917411  0.00000000
        Energy to separate low and high energystates:   -0.06765


:NOE  : NUMBER OF ELECTRONS          =   52.000

:FER  : F E R M I - ENERGY(TETRAH.M.)=   0.7341192260
:GMA  : POTENTIAL AND CHARGE CUT-OFF  12.00 Ry**.5
 
:POS001: ATOM   -1 X,Y,Z = 0.50000 0.50000 0.50000  MULT= 2  ZZ= 24.000  Cr
 
       LMMAX 10
       LM=   0 0  2 0  2 2  4 0  4 2  4 4  6 0  6 2  6 4  6 6
 
:CHA001: TOTAL VALENCE CHARGE INSIDE SPHERE   1 =   4.3937    (RMT=  1.8500 )
:PCS001: PARTIAL CHARGES SPHERE =  1 S,P,D,F,PX,PY,PZ,D-Z2,D-X2Y2,D-XY,D-XZ,D-YZ
:QTL001: 1.0348 2.9793 0.3607 0.0152 0.9953 0.9903 0.9938 0.0614 0.0958 0.0433 0.0417 0.1186
        Q-s-low E-s-low   Q-p-low E-p-low   Q-d-low E-d-low   Q-f-low E-f-low
:EPL001:  0.9956 -4.3965    2.9057 -2.3417    0.0225 -0.8478    0.0023 -0.8630
        Q-s-hi  E-s-hi    Q-p-hi  E-p-hi    Q-d-hi  E-d-hi    Q-f-hi  E-f-hi
:EPH001:  0.0392  0.1030    0.0736  0.1802    0.3384  0.1656    0.0130  0.2485
 
                      VXX         VYY         VZZ       UP TO R
:VZZ001:            -1.49346     1.56669    -0.07323       1.850
 
:POS002: ATOM   -2 X,Y,Z = 0.20000 0.80000 0.50000  MULT= 4  ZZ=  8.000  O
 
       LMMAX 16
       LM=   0 0  1 0  2 0  2 2  3 0  3 2  4 0  4 2  4 4  5 0  5 2  5 4  6 0  6 2  6 4  6 6
 
:CHA002: TOTAL VALENCE CHARGE INSIDE SPHERE   2 =   2.9174    (RMT=  1.6700 )
:PCS002: PARTIAL CHARGES SPHERE =  2 S,P,D,F,PX,PY,PZ,D-Z2,D-X2Y2,D-XY,D-XZ,D-YZ
:QTL002: 0.8337 2.0760 0.0055 0.0015 0.6882 0.6979 0.6899 0.0017 0.0007 0.0007 0.0017 0.0008
        Q-s-low E-s-low   Q-p-low E-p-low   Q-d-low E-d-low   Q-f-low E-f-low
:EPL002:  0.8228 -0.8663    0.0066 -2.1879    0.0022 -2.3795    0.0008 -2.4977
        Q-s-hi  E-s-hi    Q-p-hi  E-p-hi    Q-d-hi  E-d-hi    Q-f-hi  E-f-hi
:EPH002:  0.0110  0.1669    2.0693  0.2072    0.0033  0.2036    0.0008  0.1782
 
                      VXX         VYY         VZZ       UP TO R
:VZZ002:             0.43066    -0.90296     0.47230       1.670
 
:CHA  : TOTAL VALENCE CHARGE INSIDE UNIT CELL =      24.003127
 
:SUM  : SUM OF EIGENVALUES =         -24.079776847
 

        1.ATOM      Cr                    4 CORE STATES
:1S 001: 1S                -430.705095571 Ry
:2S 001: 2S                 -48.006111210 Ry
:2PP001: 2P*                -40.632956133 Ry
:2P 001: 2P                 -39.998614339 Ry

        2.ATOM      O                     1 CORE STATES
       CORE-FORCE in mRy/a.u. = |F|      Fx             Fy             Fz
:FCO002:   2.ATOM     31.007255555105      0.000000000000      0.000000000000     31.007255555105

:1S 002: 1S                 -36.858425474 Ry

        1.ATOM      Cr                    4 CORE STATES
:1S 001: 1S                -430.703185282 Ry
:2S 001: 2S                 -47.981466426 Ry
:2PP001: 2P*                -40.614021470 Ry
:2P 001: 2P                 -39.979232302 Ry

        2.ATOM      O                     1 CORE STATES
       CORE-FORCE in mRy/a.u. = |F|      Fx             Fy             Fz
:FCO002:   2.ATOM     30.751858954266      0.000000000000      0.000000000000     30.751858954266

:1S 002: 1S                 -36.763719343 Ry
:CINT001 Core Integral Atom   1 Up    5.000000 Dn   5.000000 Total  10.000000
:CINT002 Core Integral Atom   2 Up    1.000000 Dn   1.000000 Total   2.000000

       DENSITY AT NUCLEUS
        JATOM        VALENCE       SEMI-CORE          CORE           TOTAL
:RTO001:   1      137.530040        0.000000    11399.505110    11537.035150
:RTO002:   2       15.923897        0.000000      302.057216      317.981113

       HYPERFINE FIELDS FOR THOMSON RADIUS
:HFF001:          -60.992           0.000        -133.020        -194.012 (KGAUSS)
:HFF002:          216.342           0.000        -259.249         -42.906 (KGAUSS)
     
       CHARGES OF NEW CHARGE DENSITY
:NTO   : INTERSTITIAL     UP =     4.050842 DN =     3.546366 TOT =     7.597208
:NPC   : PW Pseudocharge  UP =    11.356792 DN =    10.359460 TOT =    21.716253
:NTO001: CHARGE SPHERE  1 UP =    10.718819 DN =     9.393620 TOT =    20.112439
:NTO002: CHARGE SPHERE  2 UP =     4.127096 DN =     3.917378 TOT =     8.044474

:NEC01: NUCLEAR AND ELECTRONIC CHARGE     80.00000    79.99998
     
       CHARGES OF OLD CHARGE DENSITY
:OTO   : INTERSTITIAL     UP =     5.520475 DN =     2.489023 TOT =     8.009497
:OPC   : PW Pseudocharge  UP =    12.438407 DN =     9.244717 TOT =    21.683125
:OTO001: CHARGE SPHERE  1 UP =    11.366163 DN =    10.455620 TOT =    21.821783
:OTO002: CHARGE SPHERE  2 UP =     4.423502 DN =     2.663232 TOT =     7.086734

:NEC02: NUCLEAR AND ELECTRONIC CHARGE     80.00000    80.00000
     
       CONVERGENCE TEST
:DTO001: DIFFERENCE SPHERE  1 UP =  0.6110918 DN =  1.1426411 TOT =  1.7537328
:DTO002: DIFFERENCE SPHERE  2 UP =  0.3171195 DN =  1.3689260 TOT =  1.6860455

:DIS  :  CHARGE DISTANCE       ( 1.3689260 for atom    2 spin 2)      3.4172159
 PW Mixed is          325
 
******************************************************
* MULTISECANT MIXING VER9 RELEASE 10.4.0              *
* Slow Mode, cautious                                *
* Fixed density scale                                *
* Regularization       1.000E-04                     *
* Step Trust Radius    0.75000                       *
* Trust Upper Limit    2.000E+00                     *
* Max Number of Memory Steps   12                    *
******************************************************
 
:PWTMP   2.5083E+02  3.8400E+02  3.8192E+02
:PLANE:  PW TOTAL      8.9990 DISTAN   1.36E+00  1.51E+01 %
:CHARG:  CLM/ATOM    103.1217 DISTAN   1.72E+00  1.67E+00 %
INFO: Reducing dbase  1.00000E-02 3.41722E+00 5.40958E-03
 
Step History
        DMIX         DMIXT        Red     Pred      Trust     Lambda    MagRel    MagAbs     Beta
  1   3.5000E-02   3.5000E-02 -1.00E+00  1.00E+00 -1.00E+01  1.00E+00  3.50E-02  3.50E-02  1.00E+00
  2   1.0183E-02   1.0183E-02  9.40E-01  1.00E+00 -1.00E+01  1.00E+00  1.02E-02  3.85E-02  1.00E+00
  3   1.8262E-02   1.8262E-02 -1.00E+00  1.00E+00 -1.00E+01  1.00E+00  1.83E-02  6.49E-02  1.00E+00
:JACOBIANS    7.307E-01   1.172E-03
  
:NORMS:  1/Froebius, Min, Max, Used   0.9868E+00  0.4907E+00  0.9869E+00  0.9869E+00
:INFO :  Number of Memory Steps    2 Skipping    0
:INFO :  SLambda=    1.0230952600  Max    1.0230952600
:PREDicted Charge, CTotal, PW Trust    1.804E-02   4.346E-03   7.619E-01
:PREDicted DMix, Beta, BLim   3.3072E-02  2.8275E+00  4.7100E-01

Eigenvalues, unscaled except for SY+YY
   #     SY Real        SY Imag          SS             YY         SY+YY Real      SY+YY Imag
   1   5.662137E-15   0.000000E+00   1.947729E+00   1.999812E+00   1.876987E-04   0.000000E+00
   2   1.959611E+00   0.000000E+00   1.110223E-16   1.875618E-04   4.004681E+00   0.000000E+00
 
:INFO :  Singular value  4.005E+00 Weight  1.000E+00 Projection -3.387E-01
:INFO :  Singular value  1.877E-04 Weight  4.683E-01 Projection  5.325E+00
:RANK :  ACTIVE   1.47/2  =  73.42 % ; YY RANK   1.47/2  =  73.40 %
 
:BLIM :  VZERO Control Off
:TRUST:  Step 9.94E-02  Charge 7.50E-02 (e) CTO  2.50E-01 (e) PW  3.85E-01 (e)
:DTRUS:  Lambda    3.488E-01 Increment    7.276E-12 Iterations    97 DMIX    1.927E-02
:INFOA:  Angle SubSpace to MSR1      0.00
:DIRM :  MEMORY  2/12 SCALE   1.000 RED  0.99 PRED  1.00 NEXT  0.99 
:TRAVE:  Charge 4.09E-02 (e) CTO  9.56E-03 (e) PW  3.85E-01 (e)
:DIRP :  |MSR1|= 3.337E-01 |PRATT|= 6.804E-01 ANGLE=  70.1 DEGREES
:DIRQ :  |MSR1|= 8.259E-02 |PRATT|= 3.442E+00 ANGLE=   0.7 DEGREES
:DIRT :  |MSR1|= 3.438E-01 |PRATT|= 3.509E+00 ANGLE=  72.6 DEGREES
:MIX  :   MSE1   REGULARIZATION:  2.00E-04 GREED: 0.02675  LMStep 0.72  0.0980 PW             
     
       CHARGES OF MIXED CHARGE DENSITY
:CTO   : INTERSTITIAL     UP =     5.485247 DN =     2.514686 TOT =     7.999933
:CPC   : PW Pseudocharge  UP =    12.169238 DN =     9.805245 TOT =    21.974483
:CTO001: CHARGE SPHERE  1 UP =    11.350657 DN =    10.430212 TOT =    21.780869
:CTO002: CHARGE SPHERE  2 UP =     4.416266 DN =     2.693316 TOT =     7.109582

       SPIN MAGNETIC MOMENTS OF MIXED CHARGE DENSITY
:MMINT:  MAGNETIC MOMENT IN INTERSTITIAL  =    2.97056
:MMI001: MAGNETIC MOMENT IN SPHERE   1    =    0.92044
:MMI002: MAGNETIC MOMENT IN SPHERE   2    =    1.72295
:MMTOT:  SPIN MAGNETIC MOMENT IN CELL     =   11.70325

:NEC03: NUCLEAR AND ELECTRONIC CHARGE     80.00000    80.00000

PW CHANGE     H    K    L      Current       Change    Residue
:PUP001:      0    0    0  4.62262124E-02 -7.970E-04 -6.680E-03
:PUP003:     -1   -1    0  3.86167430E-02 -1.530E-03 -1.685E-03
:PUP005:     -1    0   -1  1.16521421E-02 -2.142E-03  9.235E-05
:PUP006:     -2    0    0 -1.74766042E-02 -7.370E-04  7.504E-04
:PUP007:     -1   -1   -1 -7.35134195E-02  8.351E-04  1.928E-03
:PUP008:     -2   -1    0  3.90614186E-02 -4.695E-04 -9.996E-04
:PUP010:     -2   -1   -1  5.11362728E-02 -3.177E-03  6.540E-04
:PUP011:     -2   -2    0  1.81651327E-02 -8.186E-04  4.737E-04
:PUP013:      0    0   -2  9.25060783E-03 -3.809E-04  2.825E-04
:PUP014:     -3   -1    0  1.34648314E-03 -8.739E-04  2.800E-04
:PUP016:     -2   -2   -1 -7.46237486E-03  1.278E-04 -5.062E-05
:PUP017:     -1   -1   -2  6.62991702E-03 -8.274E-04  6.931E-04
  
:PDN001:      0    0    0  3.22583056E-02  1.535E-03  5.687E-03
:PDN003:     -1   -1    0  3.14892905E-02 -1.968E-04 -4.518E-04
:PDN005:     -1    0   -1  9.83787280E-03 -4.258E-03 -7.743E-03
:PDN006:     -2    0    0 -1.68801642E-02 -4.285E-03 -5.326E-03
:PDN007:     -1   -1   -1 -7.11390788E-02 -8.411E-03 -9.471E-03
:PDN008:     -2   -1    0  3.92443035E-02  4.816E-03  3.794E-03
:PDN010:     -2   -1   -1  5.75226867E-02  3.358E-03  1.181E-03
:PDN011:     -2   -2    0  2.14929060E-02  2.105E-03  2.725E-04
:PDN013:      0    0   -2  1.18810007E-02  1.432E-03 -7.316E-04
:PDN014:     -3   -1    0  1.56577138E-03 -8.361E-04  1.955E-03
:PDN016:     -2   -2   -1 -1.05584940E-02 -1.684E-03  3.127E-04
:PDN017:     -1   -1   -2  1.00511860E-02  9.583E-04  1.307E-03

:ENE  : ********** TOTAL ENERGY IN Ry =        -4800.09635061

       TOTAL FORCE IN mRy/a.u. = |F|     Fx             Fy             Fz     with/without FOR in case.in2
:FOR001:   1.ATOM          0.000          0.000          0.000          0.000 partial forces
:FOR002:   2.ATOM         88.657          0.000          0.000        -88.657 partial forces
       TOTAL FORCE WITH RESPECT TO GLOBAL CARTESIAN COORDINATES:
:FCA001:   1.ATOM                         0.000          0.000          0.000 partial forces
:FCA002:   2.ATOM                        62.690        -62.690          0.000 partial forces
       TOTAL FORCE WITH RESPECT TO THE GLOBAL COORDINATE SYSTEM:
:FGL001:   1.ATOM                 0.000000000     0.000000000     0.000000000 partial forces
:FGL002:   2.ATOM                62.689934296   -62.689934296     0.000000000 partial forces
 Flat Integration
 New Mode for Coulomb Integral
 Consistent 3/8+Simpson combinations
 Extension of core to zero
 LDM version in phi
 Fifth-order quadrature in outwin


            ---------
:ITE004:  4. ITERATION
            ---------

:NATO :    2 INDEPENDENT AND    6 TOTAL ATOMS IN UNITCELL
       SUBSTANCE: blebleble                                                   

       LATTICE                      = P   
:POT  : POTENTIAL OPTION EX_PBESOL EC_PBESOL VX_PBESOL VC_PBESOL
:LAT  : LATTICE CONSTANTS=  8.33369  8.33369  5.49910    1.571    1.571    1.571
:VOL  : UNIT CELL VOLUME =     381.91503
       MODE OF CALCULATION IS       = RELA
       SPINPOLARIZED CALCULATION
:IFFT  : FFT-parameters:   64   64   48 Factor: 2.00


   CONVERGENCE PARAMETER FOR PSEUDOCHARGE: NCON=  9
   MAXIMAL VALUE OF RMT(JATOM)*ABSK(NKK) : RK  =22.19394


:VKCOUL :  VK-COUL convergence: 0.209E-05
       ATOMNUMBER=  1 Cr         VCOUL-ZERO =  0.14687E-01
:EFG001:                        EFG         =     0.12494   *10**21  V / m**2
                               V20  TOT/SRF=    -0.01615     0.08214
                               V22  TOT/SRF=    -0.11562     0.07193
                               V22M TOT/SRF=     0.00000     0.00000
                               V21  TOT/SRF=     0.00000     0.00000
                               V21M TOT/SRF=     0.00000     0.00000

             -0.10629    0.00000    0.00000       -0.10629    0.00000    0.00000
              0.00000    0.12494    0.00000        0.00000    0.12494    0.00000
              0.00000    0.00000   -0.01865        0.00000    0.00000   -0.01865

         MAIN DIRECTIONS OF THE EFG   1.0000  0.0000  0.0000
                                      0.0000  1.0000  0.0000
                                      0.0000  0.0000  1.0000
:ANG001:  ANGLE WITH OLD X-AXIS =         0.0

:ETA001:                         ASYMM. ETA =     0.70148


       ATOMNUMBER=  2 O          VCOUL-ZERO =  0.37023E+00
:EFG002:                        EFG         =    -0.86022   *10**21  V / m**2
                               V20  TOT/SRF=     0.65010     0.74767
                               V22  TOT/SRF=     0.48489     0.52301
                               V22M TOT/SRF=     0.00000     0.00000
                               V21  TOT/SRF=     0.00000     0.00000
                               V21M TOT/SRF=     0.00000     0.00000

              0.10955    0.00000    0.00000        0.10955    0.00000    0.00000
              0.00000   -0.86022    0.00000        0.00000   -0.86022    0.00000
              0.00000    0.00000    0.75067        0.00000    0.00000    0.75067

         MAIN DIRECTIONS OF THE EFG   1.0000  0.0000  0.0000
                                      0.0000  1.0000  0.0000
                                      0.0000  0.0000  1.0000
:ANG002:  ANGLE WITH OLD X-AXIS =         0.0

:ETA002:                         ASYMM. ETA =     0.74529


     HELLMANN-FEYNMAN-FORCE IN mRy/a.u. = |F|  Fx       Fy             Fz
:FHF001:   1.ATOM      0.000000000000      0.000000000000      0.000000000000      0.000000000000

     HELLMANN-FEYNMAN-FORCE IN mRy/a.u. = |F|  Fx       Fy             Fz
:FHF002:   2.ATOM    122.564382673253      0.000000000000      0.000000000000   -122.564382673253

:FIT001: LUSE= 13 SIGMA OF V-XC FIT FOR ATOM  1  0.8029910E-02
:FIT001: LUSE= 13 SIGMA OF V-XC FIT FOR ATOM  1  0.2806775E-02
:FIT002: LUSE= 13 SIGMA OF V-XC FIT FOR ATOM  2  0.5311295E-02
:FIT002: LUSE= 13 SIGMA OF V-XC FIT FOR ATOM  2  0.4245533E-02
:DEN  : DENSITY INTEGRAL  =         -2057.25320362   (Ry)
       ELS_POTENTIAL_AT Z=0 and Z=0.5:  -0.47848  -0.47848
       ELS_POTENTIAL_AT Y=0 and Y=0.5:   0.00000   0.00000
:VZERO:v0,v0c,v0x  -1.42479  -0.47848  -0.94631 v5,v5c,v5x  -1.42479  -0.47848  -0.94631
:VZERY:v0,v0c,v0x  -0.91121   0.00000  -0.91121 v5,v5c,v5x  -0.91121   0.00000  -0.91121
:VZERX:v0,v0c,v0x  -1.15098  -0.37301  -0.77797 v5,v5c,v5x  -1.15098  -0.37301  -0.77797
:LMAX-WF:   10   Non-Spherical LMAX:   4

          ATOMIC SPHERE DEPENDENT PARAMETERS FOR ATOM  Cr        
:e__0001: OVERALL ENERGY PARAMETER IS    0.5311
          OVERALL BASIS SET ON ATOM IS LAPW
:E0_0001: E( 0)=    0.5311
             APW+lo
:E0_0001: E( 0)=   -4.6029   E(BOTTOM)=   -4.913   E(TOP)=   -4.292  2  3   149
             LOCAL ORBITAL
:E1_0001: E( 1)=    0.5311
             APW+lo
:E1_0001: E( 1)=   -2.5311   E(BOTTOM)=   -3.000   E(TOP)=   -2.063  1  2   150
             LOCAL ORBITAL
:E2_0001: E( 2)=    0.5311   E(BOTTOM)=   -0.041   E(TOP)= -200.000  0 -1   116
             APW+lo

          ATOMIC SPHERE DEPENDENT PARAMETERS FOR ATOM  O         
:e__0002: OVERALL ENERGY PARAMETER IS    0.5311
          OVERALL BASIS SET ON ATOM IS LAPW
:E0_0002: E( 0)=    0.9311
             APW+lo
:E0_0002: E( 0)=   -1.0505   E(BOTTOM)=   -2.186   E(TOP)=    0.085  1  2   215
             LOCAL ORBITAL
:E1_0002: E( 1)=    0.5311
             APW+lo

       K=   0.06250   0.06250   0.03846            1
:RKM  : MATRIX SIZE   533LOs:  46  RKM= 6.98  WEIGHT= 8.00  PGR:    
       EIGENVALUES ARE:
:EIG00001:      -4.5434435   -4.5420365   -2.4689208   -2.4686447   -2.4603950
:EIG00006:      -2.4587753   -2.4583864   -2.4581088   -1.1863022   -1.0776019
:EIG00011:      -1.0502214   -1.0487215   -0.2252705   -0.1484879   -0.1436888
:EIG00016:      -0.0459708   -0.0458362   -0.0196576   -0.0153346    0.0022791
:EIG00021:       0.1004318    0.1206073    0.1258528    0.1590909    0.6069582
:EIG00026:       0.6246202    0.6669967    0.6747092    0.6777341    0.7864420
:EIG00031:       0.8151598    0.8931159    0.8976518    0.9144412    0.9843165
:EIG00036:       1.1838891    1.1871258    1.4037959    1.5060142    1.5413447
:EIG00041:       1.6482231    1.7698500    1.7861036    1.7979479    1.8696608
:EIG00046:       2.0377895    2.1674919    2.1862228    2.2262184
 
       ********************************************************

:KPT   :      NUMBER OF K-POINTS:    70
:LMAX-WF:   10   Non-Spherical LMAX:   4

          ATOMIC SPHERE DEPENDENT PARAMETERS FOR ATOM  Cr        
:e__0001: OVERALL ENERGY PARAMETER IS    0.5311
          OVERALL BASIS SET ON ATOM IS LAPW
:E0_0001: E( 0)=    0.5311
             APW+lo
:E0_0001: E( 0)=   -4.5363   E(BOTTOM)=   -4.846   E(TOP)=   -4.227  2  3   163
             LOCAL ORBITAL
:E1_0001: E( 1)=    0.5311
             APW+lo
:E1_0001: E( 1)=   -2.4641   E(BOTTOM)=   -2.931   E(TOP)=   -1.997  1  2   152
             LOCAL ORBITAL
:E2_0001: E( 2)=    0.5311   E(BOTTOM)=    0.031   E(TOP)= -200.000  0 -1   103
             APW+lo

          ATOMIC SPHERE DEPENDENT PARAMETERS FOR ATOM  O         
:e__0002: OVERALL ENERGY PARAMETER IS    0.5311
          OVERALL BASIS SET ON ATOM IS LAPW
:E0_0002: E( 0)=    0.9311
             APW+lo
:E0_0002: E( 0)=   -0.7898   E(BOTTOM)=   -1.953   E(TOP)=    0.373  1  2   215
             LOCAL ORBITAL
:E1_0002: E( 1)=    0.5311
             APW+lo

       K=   0.06250   0.06250   0.03846            1
:RKM  : MATRIX SIZE   533LOs:  46  RKM= 6.98  WEIGHT= 8.00  PGR:    
       EIGENVALUES ARE:
:EIG00001:      -4.4761559   -4.4749869   -2.3984378   -2.3982197   -2.3910915
:EIG00006:      -2.3896307   -2.3894165   -2.3892111   -0.9575919   -0.8367982
:EIG00011:      -0.8095396   -0.8081690   -0.0140186    0.0516444    0.0660377
:EIG00016:       0.1722061    0.1728017    0.2105189    0.2155924    0.2386252
:EIG00021:       0.3517323    0.3729951    0.3794103    0.4124664    0.7095961
:EIG00026:       0.7173212    0.7504815    0.7590878    0.7628979    0.8918288
:EIG00031:       0.9081872    1.0061683    1.0107393    1.0789218    1.1113400
:EIG00036:       1.3449913    1.3458161    1.5765353    1.6344004    1.6821130
:EIG00041:       1.8447773    1.9112799    1.9581802    1.9668486    2.0093790
:EIG00046:       2.2115972
 
       ********************************************************

:KPT   :      NUMBER OF K-POINTS:    70
:GAP (global)   :    0.0    Ry =     0.0   eV (metal)
:GAP (this spin):    0.0    Ry =     0.0   eV (metal)
         Bandranges (emin - emax) and occupancy:
:BAN00020:  20   -0.016264    0.052158  1.00000000
:BAN00021:  21    0.006920    0.100432  1.00000000
:BAN00022:  22    0.019087    0.120607  1.00000000
:BAN00023:  23    0.063605    0.125853  1.00000000
:BAN00024:  24    0.068245    0.159091  1.00000000
:BAN00025:  25    0.606958    0.673231  1.00000000
:BAN00026:  26    0.621443    0.693211  1.00000000
:BAN00027:  27    0.661742    0.720819  0.92533183
:BAN00028:  28    0.674709    0.722911  0.75267164
:BAN00029:  29    0.676961    0.732430  0.31396163
:BAN00030:  30    0.702741    0.786442  0.00803490
:BAN00031:  31    0.815160    0.881021  0.00000000
:BAN00032:  32    0.838459    0.893116  0.00000000
:BAN00033:  33    0.875100    0.938443  0.00000000
:BAN00034:  34    0.890652    0.957169  0.00000000
:BAN00035:  35    0.975595    1.231715  0.00000000
        Energy to separate low and high energystates:    0.55696


:NOE  : NUMBER OF ELECTRONS          =   52.000

:FER  : F E R M I - ENERGY(TETRAH.M.)=   0.7079554323
:GMA  : POTENTIAL AND CHARGE CUT-OFF  12.00 Ry**.5
 
:POS001: ATOM   -1 X,Y,Z = 0.50000 0.50000 0.50000  MULT= 2  ZZ= 24.000  Cr
 
       LMMAX 10
       LM=   0 0  2 0  2 2  4 0  4 2  4 4  6 0  6 2  6 4  6 6
 
:CHA001: TOTAL VALENCE CHARGE INSIDE SPHERE   1 =   5.7691    (RMT=  1.8500 )
:PCS001: PARTIAL CHARGES SPHERE =  1 S,P,D,F,PX,PY,PZ,D-Z2,D-X2Y2,D-XY,D-XZ,D-YZ
:QTL001: 1.0321 2.9742 1.7436 0.0153 0.9938 0.9883 0.9922 0.3933 0.2573 0.3846 0.5862 0.1223
        Q-s-low E-s-low   Q-p-low E-p-low   Q-d-low E-d-low   Q-f-low E-f-low
:EPL001:  1.0298 -4.3568    2.9723 -2.3922    0.2714 -0.1300    0.0145 -0.1469
        Q-s-hi  E-s-hi    Q-p-hi  E-p-hi    Q-d-hi  E-d-hi    Q-f-hi  E-f-hi
:EPH001:  0.0023  0.6480    0.0019  0.6673    1.4724  0.6688    0.0009  0.6704
 
                      VXX         VYY         VZZ       UP TO R
:VZZ001:            -1.05522     3.42398    -2.36875       1.850
 
:POS002: ATOM   -2 X,Y,Z = 0.20000 0.80000 0.50000  MULT= 4  ZZ=  8.000  O
 
       LMMAX 16
       LM=   0 0  1 0  2 0  2 2  3 0  3 2  4 0  4 2  4 4  5 0  5 2  5 4  6 0  6 2  6 4  6 6
 
:CHA002: TOTAL VALENCE CHARGE INSIDE SPHERE   2 =   3.1023    (RMT=  1.6700 )
:PCS002: PARTIAL CHARGES SPHERE =  2 S,P,D,F,PX,PY,PZ,D-Z2,D-X2Y2,D-XY,D-XZ,D-YZ
:QTL002: 0.8455 2.2302 0.0221 0.0033 0.7391 0.7530 0.7381 0.0062 0.0021 0.0028 0.0058 0.0053
        Q-s-low E-s-low   Q-p-low E-p-low   Q-d-low E-d-low   Q-f-low E-f-low
:EPL002:  0.8444 -1.0845    2.1845 -0.0225    0.0048 -1.1808    0.0015 -1.4226
        Q-s-hi  E-s-hi    Q-p-hi  E-p-hi    Q-d-hi  E-d-hi    Q-f-hi  E-f-hi
:EPH002:  0.0011  0.6644    0.0457  0.6714    0.0174  0.6626    0.0019  0.6756
 
                      VXX         VYY         VZZ       UP TO R
:VZZ002:             0.48381    -1.30542     0.82161       1.670
 
:CHA  : TOTAL VALENCE CHARGE INSIDE UNIT CELL =      27.999999
 
:SUM  : SUM OF EIGENVALUES =         -25.809289393
 
:GAP (global)   :    0.0    Ry =     0.0   eV (metal)
:GAP (this spin):  0.297130 Ry =     4.043 eV (accurate value if proper k-mesh)
         Bandranges (emin - emax) and occupancy:
:BAN00014:  14    0.028887    0.102929  1.00000000
:BAN00015:  15    0.054038    0.155562  1.00000000
:BAN00016:  16    0.061612    0.173603  1.00000000
:BAN00017:  17    0.137543    0.238960  1.00000000
:BAN00018:  18    0.152057    0.243921  1.00000000
:BAN00019:  19    0.180164    0.272521  1.00000000
:BAN00020:  20    0.212175    0.283503  1.00000000
:BAN00021:  21    0.235664    0.351732  1.00000000
:BAN00022:  22    0.242465    0.372995  1.00000000
:BAN00023:  23    0.299624    0.379410  1.00000000
:BAN00024:  24    0.305286    0.412466  1.00000000
:BAN00025:  25    0.709596    0.776416  0.00000000
:BAN00026:  26    0.717239    0.790206  0.00000000
:BAN00027:  27    0.745773    0.808500  0.00000000
:BAN00028:  28    0.759088    0.809450  0.00000000
:BAN00029:  29    0.762898    0.836106  0.00000000
        Energy to separate low and high energystates:   -0.06402


:NOE  : NUMBER OF ELECTRONS          =   52.000

:FER  : F E R M I - ENERGY(TETRAH.M.)=   0.7079554323
:GMA  : POTENTIAL AND CHARGE CUT-OFF  12.00 Ry**.5
 
:POS001: ATOM   -1 X,Y,Z = 0.50000 0.50000 0.50000  MULT= 2  ZZ= 24.000  Cr
 
       LMMAX 10
       LM=   0 0  2 0  2 2  4 0  4 2  4 4  6 0  6 2  6 4  6 6
 
:CHA001: TOTAL VALENCE CHARGE INSIDE SPHERE   1 =   4.4308    (RMT=  1.8500 )
:PCS001: PARTIAL CHARGES SPHERE =  1 S,P,D,F,PX,PY,PZ,D-Z2,D-X2Y2,D-XY,D-XZ,D-YZ
:QTL001: 1.0360 2.9820 0.3940 0.0154 0.9962 0.9913 0.9947 0.0655 0.1035 0.0494 0.0468 0.1286
        Q-s-low E-s-low   Q-p-low E-p-low   Q-d-low E-d-low   Q-f-low E-f-low
:EPL001:  0.9960 -4.4342    2.9081 -2.3781    0.0233 -0.8375    0.0023 -0.8524
        Q-s-hi  E-s-hi    Q-p-hi  E-p-hi    Q-d-hi  E-d-hi    Q-f-hi  E-f-hi
:EPH001:  0.0399  0.1091    0.0739  0.1873    0.3705  0.1707    0.0131  0.2569
 
                      VXX         VYY         VZZ       UP TO R
:VZZ001:            -1.54215     1.53681     0.00534       1.850
 
:POS002: ATOM   -2 X,Y,Z = 0.20000 0.80000 0.50000  MULT= 4  ZZ=  8.000  O
 
       LMMAX 16
       LM=   0 0  1 0  2 0  2 2  3 0  3 2  4 0  4 2  4 4  5 0  5 2  5 4  6 0  6 2  6 4  6 6
 
:CHA002: TOTAL VALENCE CHARGE INSIDE SPHERE   2 =   2.8899    (RMT=  1.6700 )
:PCS002: PARTIAL CHARGES SPHERE =  2 S,P,D,F,PX,PY,PZ,D-Z2,D-X2Y2,D-XY,D-XZ,D-YZ
:QTL002: 0.8318 2.0502 0.0056 0.0016 0.6795 0.6898 0.6808 0.0017 0.0007 0.0007 0.0019 0.0008
        Q-s-low E-s-low   Q-p-low E-p-low   Q-d-low E-d-low   Q-f-low E-f-low
:EPL002:  0.8205 -0.8561    0.0066 -2.1986    0.0022 -2.3960    0.0008 -2.5245
        Q-s-hi  E-s-hi    Q-p-hi  E-p-hi    Q-d-hi  E-d-hi    Q-f-hi  E-f-hi
:EPH002:  0.0115  0.1756    2.0437  0.2147    0.0036  0.2084    0.0008  0.1847
 
                      VXX         VYY         VZZ       UP TO R
:VZZ002:             0.43752    -0.96462     0.52710       1.670
 
:CHA  : TOTAL VALENCE CHARGE INSIDE UNIT CELL =      24.000000
 
:SUM  : SUM OF EIGENVALUES =         -24.254826992
 

        1.ATOM      Cr                    4 CORE STATES
:1S 001: 1S                -430.766719651 Ry
:2S 001: 2S                 -48.066396971 Ry
:2PP001: 2P*                -40.693661044 Ry
:2P 001: 2P                 -40.059278930 Ry

        2.ATOM      O                     1 CORE STATES
       CORE-FORCE in mRy/a.u. = |F|      Fx             Fy             Fz
:FCO002:   2.ATOM     32.514794092408      0.000000000000      0.000000000000     32.514794092408

:1S 002: 1S                 -36.823053857 Ry

[...]
:EIG00011:      -0.8158410   -0.8144122   -0.0898343   -0.0429745   -0.0067808
:EIG00016:       0.0778223    0.0793094    0.1804821    0.1907636    0.2139761
:EIG00021:       0.3256202    0.3472834    0.3520236    0.3739944    0.3788650
:EIG00026:       0.3998726    0.4092370    0.4146670    0.4303393    0.5578996
:EIG00031:       0.5681986    0.7378907    0.7417131    0.8244228    1.0340214
:EIG00036:       1.2612786    1.2633922    1.4803129    1.5519520    1.5856848
:EIG00041:       1.7652160    1.8607333    1.8619415    1.8728436    1.8738782
       ********************************************************

:KPT   :      NUMBER OF K-POINTS:    70
:LMAX-WF:   10   Non-Spherical LMAX:   4

          ATOMIC SPHERE DEPENDENT PARAMETERS FOR ATOM  Cr        
:e__0001: OVERALL ENERGY PARAMETER IS    0.2725
          OVERALL BASIS SET ON ATOM IS LAPW
:E0_0001: E( 0)=    0.2725
             APW+lo
:E0_0001: E( 0)=   -4.8027   E(BOTTOM)=   -5.096   E(TOP)=   -4.509  2  3   132
             LOCAL ORBITAL
:E1_0001: E( 1)=    0.2725
             APW+lo
:E1_0001: E( 1)=   -2.7175   E(BOTTOM)=   -3.160   E(TOP)=   -2.275  1  2   142
             LOCAL ORBITAL
:E2_0001: E( 2)=    0.2725   E(BOTTOM)=   -0.163   E(TOP)= -200.000  0 -1   111
             APW+lo

          ATOMIC SPHERE DEPENDENT PARAMETERS FOR ATOM  O         
:e__0002: OVERALL ENERGY PARAMETER IS    0.2725
          OVERALL BASIS SET ON ATOM IS LAPW
:E0_0002: E( 0)=    0.6725
             APW+lo
:E0_0002: E( 0)=   -0.7846   E(BOTTOM)=   -1.958   E(TOP)=    0.389  1  2   218
             LOCAL ORBITAL
:E1_0002: E( 1)=    0.2725
             APW+lo

       K=   0.06250   0.06250   0.03846            1
:RKM  : MATRIX SIZE   533LOs:  46  RKM= 6.98  WEIGHT= 8.00  PGR:    
       EIGENVALUES ARE:
:EIG00001:      -4.7451852   -4.7442920   -2.6688115   -2.6687772   -2.6439560
:EIG00006:      -2.6439016   -2.6262547   -2.6250513   -0.9772673   -0.8519200
:EIG00011:      -0.8234992   -0.8221687   -0.0621000   -0.0038838    0.0118787
:EIG00016:       0.1115442    0.1124789    0.1807043    0.1880560    0.2170369
:EIG00021:       0.3386932    0.3601994    0.3669751    0.4070386    0.5414214
:EIG00026:       0.5423028    0.5624674    0.5634438    0.5696198    0.6769288
:EIG00031:       0.6934867    0.8174572    0.8221666    0.9143591    1.0484207
:EIG00036:       1.2868341    1.2877964    1.5372596    1.5471823    1.6203338
:EIG00041:       1.8031185    1.8656526    1.9054204    1.9110282    1.9239762
       ********************************************************

:KPT   :      NUMBER OF K-POINTS:    70
:GAP (global)   :    0.0    Ry =     0.0   eV (metal)
:GAP (this spin):    0.0    Ry =     0.0   eV (metal)
         Bandranges (emin - emax) and occupancy:
:BAN00019:  19    0.126261    0.215559  1.00000000
:BAN00020:  20    0.160044    0.238246  1.00000000
:BAN00021:  21    0.175309    0.325620  1.00000000
:BAN00022:  22    0.191268    0.347283  1.00000000
:BAN00023:  23    0.247305    0.352024  1.00000000
:BAN00024:  24    0.274689    0.382639  1.00000000
:BAN00025:  25    0.362714    0.425192  1.00000000
:BAN00026:  26    0.379783    0.438452  1.00000000
:BAN00027:  27    0.388969    0.466956  1.00000000
:BAN00028:  28    0.400322    0.506581  0.89699833
:BAN00029:  29    0.430339    0.540095  0.10300167
:BAN00030:  30    0.496148    0.557900  0.00000000
:BAN00031:  31    0.568199    0.694785  0.00000000
:BAN00032:  32    0.598471    0.737891  0.00000000
:BAN00033:  33    0.682586    0.785208  0.00000000
:BAN00034:  34    0.711444    0.824423  0.00000000
        Energy to separate low and high energystates:   -0.13983


:NOE  : NUMBER OF ELECTRONS          =   52.000

:FER  : F E R M I - ENERGY(TETRAH.M.)=   0.4716718359
:GMA  : POTENTIAL AND CHARGE CUT-OFF  12.00 Ry**.5
 
:POS001: ATOM   -1 X,Y,Z = 0.50000 0.50000 0.50000  MULT= 2  ZZ= 24.000  Cr
 
       LMMAX 10
       LM=   0 0  2 0  2 2  4 0  4 2  4 4  6 0  6 2  6 4  6 6
 
:CHA001: TOTAL VALENCE CHARGE INSIDE SPHERE   1 =   6.6302    (RMT=  1.8500 )
:PCS001: PARTIAL CHARGES SPHERE =  1 S,P,D,F,PX,PY,PZ,D-Z2,D-X2Y2,D-XY,D-XZ,D-YZ
:QTL001: 1.0510 3.0079 2.5518 0.0164 1.0052 0.9995 1.0034 0.6792 0.4649 0.4814 0.6359 0.2904
        Q-s-low E-s-low   Q-p-low E-p-low   Q-d-low E-d-low   Q-f-low E-f-low
:EPL001:  1.0000 -4.8637    2.9268 -2.7993    0.0344 -0.8451    0.0023 -0.8460
        Q-s-hi  E-s-hi    Q-p-hi  E-p-hi    Q-d-hi  E-d-hi    Q-f-hi  E-f-hi
:EPH001:  0.0509  0.0988    0.0812  0.1723    2.5174  0.2917    0.0141  0.2481
 
                      VXX         VYY         VZZ       UP TO R
:VZZ001:             3.72783     1.03938    -4.76720       1.850
 
:POS002: ATOM   -2 X,Y,Z = 0.20000 0.80000 0.50000  MULT= 4  ZZ=  8.000  O
 
       LMMAX 16
       LM=   0 0  1 0  2 0  2 2  3 0  3 2  4 0  4 2  4 4  5 0  5 2  5 4  6 0  6 2  6 4  6 6
 
:CHA002: TOTAL VALENCE CHARGE INSIDE SPHERE   2 =   2.6412    (RMT=  1.6700 )
:PCS002: PARTIAL CHARGES SPHERE =  2 S,P,D,F,PX,PY,PZ,D-Z2,D-X2Y2,D-XY,D-XZ,D-YZ
:QTL002: 0.8186 1.8014 0.0160 0.0038 0.6158 0.5818 0.6037 0.0047 0.0016 0.0019 0.0049 0.0030
        Q-s-low E-s-low   Q-p-low E-p-low   Q-d-low E-d-low   Q-f-low E-f-low
:EPL002:  0.8019 -0.8624    0.0053 -2.3415    0.0019 -2.5675    0.0007 -2.8002
        Q-s-hi  E-s-hi    Q-p-hi  E-p-hi    Q-d-hi  E-d-hi    Q-f-hi  E-f-hi
:EPH002:  0.0168  0.1832    1.7960  0.1854    0.0140  0.2926    0.0031  0.2578
 
                      VXX         VYY         VZZ       UP TO R
:VZZ002:            -1.00757     0.73448     0.27307       1.670
 
:CHA  : TOTAL VALENCE CHARGE INSIDE UNIT CELL =      28.000000
 
:SUM  : SUM OF EIGENVALUES =         -26.697993197
 
:GAP (global)   :    0.0    Ry =     0.0   eV (metal)
:GAP (this spin):  0.118076 Ry =     1.607 eV (accurate value if proper k-mesh)
         Bandranges (emin - emax) and occupancy:
:BAN00014:  14   -0.028927    0.051956  1.00000000
:BAN00015:  15    0.011879    0.105666  1.00000000
:BAN00016:  16    0.019730    0.113104  1.00000000
:BAN00017:  17    0.078071    0.202682  1.00000000
:BAN00018:  18    0.114181    0.214391  1.00000000
:BAN00019:  19    0.147083    0.235916  1.00000000
:BAN00020:  20    0.178187    0.249605  1.00000000
:BAN00021:  21    0.196046    0.338693  1.00000000
:BAN00022:  22    0.212311    0.360199  1.00000000
:BAN00023:  23    0.271555    0.366975  1.00000000
:BAN00024:  24    0.282628    0.407039  1.00000000
:BAN00025:  25    0.525115    0.592018  0.00000000
:BAN00026:  26    0.529332    0.612435  0.00000000
:BAN00027:  27    0.562467    0.631822  0.00000000
:BAN00028:  28    0.563444    0.638369  0.00000000
:BAN00029:  29    0.569620    0.660301  0.00000000
        Energy to separate low and high energystates:   -0.11210


:NOE  : NUMBER OF ELECTRONS          =   52.000

:FER  : F E R M I - ENERGY(TETRAH.M.)=   0.4716718359
:GMA  : POTENTIAL AND CHARGE CUT-OFF  12.00 Ry**.5
 
:POS001: ATOM   -1 X,Y,Z = 0.50000 0.50000 0.50000  MULT= 2  ZZ= 24.000  Cr
 
       LMMAX 10
       LM=   0 0  2 0  2 2  4 0  4 2  4 4  6 0  6 2  6 4  6 6
 
:CHA001: TOTAL VALENCE CHARGE INSIDE SPHERE   1 =   4.7217    (RMT=  1.8500 )
:PCS001: PARTIAL CHARGES SPHERE =  1 S,P,D,F,PX,PY,PZ,D-Z2,D-X2Y2,D-XY,D-XZ,D-YZ
:QTL001: 1.0415 2.9955 0.6659 0.0156 1.0010 0.9960 0.9986 0.0964 0.1693 0.1071 0.0852 0.2076
        Q-s-low E-s-low   Q-p-low E-p-low   Q-d-low E-d-low   Q-f-low E-f-low
:EPL001:  0.9985 -4.6971    2.9214 -2.6310    0.0295 -0.8540    0.0024 -0.8919
        Q-s-hi  E-s-hi    Q-p-hi  E-p-hi    Q-d-hi  E-d-hi    Q-f-hi  E-f-hi
:EPH001:  0.0430  0.0742    0.0743  0.1539    0.6361  0.1339    0.0132  0.2272
 
                      VXX         VYY         VZZ       UP TO R
:VZZ001:            -2.74787     1.33906     1.40882       1.850
 
:POS002: ATOM   -2 X,Y,Z = 0.20000 0.80000 0.50000  MULT= 4  ZZ=  8.000  O
 
       LMMAX 16
       LM=   0 0  1 0  2 0  2 2  3 0  3 2  4 0  4 2  4 4  5 0  5 2  5 4  6 0  6 2  6 4  6 6
 
:CHA002: TOTAL VALENCE CHARGE INSIDE SPHERE   2 =   2.7153    (RMT=  1.6700 )
:PCS002: PARTIAL CHARGES SPHERE =  2 S,P,D,F,PX,PY,PZ,D-Z2,D-X2Y2,D-XY,D-XZ,D-YZ
:QTL002: 0.8216 1.8841 0.0070 0.0019 0.6240 0.6365 0.6237 0.0021 0.0008 0.0007 0.0023 0.0011
        Q-s-low E-s-low   Q-p-low E-p-low   Q-d-low E-d-low   Q-f-low E-f-low
:EPL002:  0.8081 -0.8699    0.0057 -2.3003    0.0019 -2.5183    0.0008 -2.7065
        Q-s-hi  E-s-hi    Q-p-hi  E-p-hi    Q-d-hi  E-d-hi    Q-f-hi  E-f-hi
:EPH002:  0.0135  0.1553    1.8784  0.1795    0.0050  0.1783    0.0012  0.1451
 
                      VXX         VYY         VZZ       UP TO R
:VZZ002:             0.50122    -1.26155     0.76032       1.670
 
:CHA  : TOTAL VALENCE CHARGE INSIDE UNIT CELL =      24.000000
 
:SUM  : SUM OF EIGENVALUES =         -26.827634981
 

        1.ATOM      Cr                    4 CORE STATES
:1S 001: 1S                -431.093670352 Ry
:2S 001: 2S                 -48.486704650 Ry
:2PP001: 2P*                -41.101283405 Ry
:2P 001: 2P                 -40.467830547 Ry

        2.ATOM      O                     1 CORE STATES
       CORE-FORCE in mRy/a.u. = |F|      Fx             Fy             Fz
:FCO002:   2.ATOM     51.764377466064      0.000000000000      0.000000000000     51.764377466064

:1S 002: 1S                 -36.563521800 Ry

        1.ATOM      Cr                    4 CORE STATES
:1S 001: 1S                -431.093781709 Ry
:2S 001: 2S                 -48.416621734 Ry
:2PP001: 2P*                -41.048343390 Ry
:2P 001: 2P                 -40.413544906 Ry

        2.ATOM      O                     1 CORE STATES
       CORE-FORCE in mRy/a.u. = |F|      Fx             Fy             Fz
:FCO002:   2.ATOM     52.489056125362      0.000000000000      0.000000000000     52.489056125362

:1S 002: 1S                 -36.568365134 Ry
:CINT001 Core Integral Atom   1 Up    5.000000 Dn   5.000000 Total  10.000000
:CINT002 Core Integral Atom   2 Up    1.000000 Dn   1.000000 Total   2.000000

       DENSITY AT NUCLEUS
        JATOM        VALENCE       SEMI-CORE          CORE           TOTAL
:RTO001:   1      141.042546        0.000000    11398.818405    11539.860951
:RTO002:   2       15.072107        0.000000      302.093130      317.165237

       HYPERFINE FIELDS FOR THOMSON RADIUS
:HFF001:          363.237           0.000        -458.719         -95.482 (KGAUSS)
:HFF002:          -22.247           0.000          13.596          -8.651 (KGAUSS)
     
       CHARGES OF NEW CHARGE DENSITY
:NTO   : INTERSTITIAL     UP =     4.174997 DN =     3.695214 TOT =     7.870211
:NPC   : PW Pseudocharge  UP =    11.028574 DN =    10.115483 TOT =    21.144057
:NTO001: CHARGE SPHERE  1 UP =    11.630125 DN =     9.721756 TOT =    21.351881
:NTO002: CHARGE SPHERE  2 UP =     3.641186 DN =     3.715317 TOT =     7.356502

:NEC01: NUCLEAR AND ELECTRONIC CHARGE     80.00000    79.99998
     
       CHARGES OF OLD CHARGE DENSITY
:OTO   : INTERSTITIAL     UP =     4.107554 DN =     3.737072 TOT =     7.844626
:OPC   : PW Pseudocharge  UP =    11.016557 DN =    10.116385 TOT =    21.132942
:OTO001: CHARGE SPHERE  1 UP =    11.636528 DN =     9.657922 TOT =    21.294450
:OTO002: CHARGE SPHERE  2 UP =     3.649639 DN =     3.741979 TOT =     7.391619

:NEC02: NUCLEAR AND ELECTRONIC CHARGE     80.00000    80.00000
     
       CONVERGENCE TEST
:DTO001: DIFFERENCE SPHERE  1 UP =  0.0180977 DN =  0.0731691 TOT =  0.0912668
:DTO002: DIFFERENCE SPHERE  2 UP =  0.0161925 DN =  0.0266551 TOT =  0.0428476

:DIS  :  CHARGE DISTANCE       ( 0.0731691 for atom    1 spin 2)      0.1179747
 PW Mixed is          325
 
******************************************************
* MULTISECANT MIXING VER9 RELEASE 10.4.0              *
* Slow Mode, cautious                                *
* Fixed density scale                                *
* Regularization       1.000E-04                     *
* Step Trust Radius    0.75000                       *
* Trust Upper Limit    2.000E+00                     *
* Max Number of Memory Steps   12                    *
******************************************************
 
:PWTMP   2.5083E+02  3.8400E+02  3.8192E+02
:PLANE:  PW TOTAL      8.6131 DISTAN   5.58E-02  6.48E-01 %
:CHARG:  CLM/ATOM    103.1513 DISTAN   7.60E-02  7.37E-02 %
 
Step History
        DMIX         DMIXT        Red     Pred      Trust     Lambda    MagRel    MagAbs     Beta
  7   6.6873E-02   3.4341E-02  6.19E-01  6.43E-01  4.93E-01  1.09E+00  3.88E-01  9.49E-01  1.00E+00
  8   1.2251E-01   1.1568E-01  3.64E-01  3.41E-01  8.27E-01  5.33E-01  8.27E-01  1.25E+00  1.00E+00
  9   4.9003E-02   4.9003E-02  8.23E-01  8.19E-01  1.74E+00  7.56E-01  6.85E-01  3.78E-01  1.00E+00
 10   4.3278E-02   4.3278E-02  1.58E+00  8.42E-01  2.12E+00  1.13E+00  3.34E-01  1.52E-01  1.00E+00
 11   3.4066E-02   3.4066E-02  1.23E+00  4.12E-01  1.59E+00  8.11E-01  2.21E-01  1.59E-01  8.00E-01
 12   2.8102E-02   2.8102E-02  1.40E+00  2.76E-01  1.29E+00  5.36E-01  3.89E-01  3.46E-01  1.00E+00
 13   2.5372E-02   2.5372E-02  7.65E-01  3.06E-01  1.03E+00  4.57E-01  2.21E-01  2.75E-01  8.00E-01
 14   5.1567E-02   5.1567E-02  1.05E+00  2.75E-01  1.29E+00  1.00E+00  1.88E-01  1.79E-01  1.00E+00
 15   1.2892E-01   8.8662E-02  4.24E-01  1.17E-01  1.22E+00  7.83E-01  3.07E-01  3.07E-01  1.00E+00
 16   6.7223E-02   6.7223E-02  3.47E-01  1.53E-01  1.63E+00  6.56E-01  9.99E-01  4.23E-01  1.00E+00
 17   4.0228E-02   4.0228E-02  8.08E-01  4.77E-01  2.18E+00  5.37E-01  4.58E-01  6.72E-02  8.67E-01
 18   5.1510E-02   5.1510E-02  1.21E+00  5.68E-01  2.69E+00  7.51E-01  3.23E-01  3.84E-02  6.94E-01
 19   2.8412E-02   2.8412E-02 -1.00E+00  4.63E-01  2.23E+00  1.00E+00  9.96E-02  1.43E-02  8.67E-01
:JACOBIANS    9.600E-01   2.560E+00
  
:NORMS:  1/Froebius, Min, Max, Used   0.1023E+01  0.4490E+00  0.1174E+01  0.1174E+01
:INFO :  Number of Memory Steps   12 Skipping    6
:INFO :  SLambda=    0.8859265789  Max    0.8859265789
:PREDicted Charge, CTotal, PW Trust    9.930E-03   2.893E-02   2.462E-02
:PREDicted DMix, Beta, BLim   5.0732E-01  2.7327E+00  5.0515E-01

Eigenvalues, unscaled except for SY+YY
   #     SY Real        SY Imag          SS             YY         SY+YY Real      SY+YY Imag
   1   6.663856E+00   0.000000E+00   1.052498E+01   7.640392E+00   1.207642E+01   0.000000E+00
   2   1.732991E+00   0.000000E+00   1.356785E+00   3.300612E+00   6.219848E+00   0.000000E+00
   3   4.562250E-01   0.000000E+00   4.286772E-01   5.374954E-01   9.731351E-01   0.000000E+00
   4   2.561548E-01   0.000000E+00   2.153041E-01   2.969116E-01   5.329319E-01   0.000000E+00
   5   8.239355E-02   0.000000E+00   2.613812E-02   1.729401E-01   2.879737E-01   0.000000E+00
   6   3.047002E-02   0.000000E+00   1.433551E-02   4.473935E-02   7.369848E-02   0.000000E+00
   7   7.711431E-05   9.519739E-05   3.791529E-04   6.496522E-03   5.835494E-03   0.000000E+00
   8   7.711431E-05  -9.519739E-05   3.348317E-06   2.665941E-04   2.415714E-04   0.000000E+00
   9   6.056781E-06   0.000000E+00   3.364547E-07   8.876089E-05   9.777038E-05   0.000000E+00
  10  -6.894226E-09   0.000000E+00   1.452969E-07   4.232527E-05   4.629084E-05   0.000000E+00
  11   8.098135E-07   0.000000E+00   8.382389E-08   1.433226E-05   1.573867E-05   0.000000E+00
  12   2.508459E-06   0.000000E+00   3.579712E-08   7.182364E-07   8.450317E-07   0.000000E+00
 
:INFO :  Singular value  1.210E+01 Weight  1.000E+00 Projection -1.494E-02
:INFO :  Singular value  6.221E+00 Weight  1.000E+00 Projection  6.011E-02
:INFO :  Singular value  9.732E-01 Weight  1.000E+00 Projection -5.073E-02
:INFO :  Singular value  5.333E-01 Weight  1.000E+00 Projection -6.026E-02
:INFO :  Singular value  2.881E-01 Weight  1.000E+00 Projection -6.890E-02
:INFO :  Singular value  7.409E-02 Weight  9.999E-01 Projection -9.016E-02
:INFO :  Singular value  5.967E-03 Weight  9.839E-01 Projection  9.336E-01
:INFO :  Singular value  2.396E-04 Weight  8.955E-02 Projection  8.959E-02
:INFO :  Singular value  9.741E-05 Weight  1.599E-02 Projection  1.399E-02
:INFO :  Singular value  4.643E-05 Weight  3.680E-03 Projection -2.379E-03
:INFO :  Singular value  1.540E-05 Weight  4.061E-04 Projection -2.868E-03
:INFO :  Singular value  8.447E-07 Weight  1.222E-06 Projection  2.875E-05
:RANK :  ACTIVE   7.09/12 =  59.11 % ; YY RANK   7.11/12 =  59.26 %
 
:BLIM :  VZERO Control Off
:TRUST:  Step 2.00E+00  Charge 5.71E-02 (e) CTO  3.81E-02 (e) PW  1.02E-01 (e)
:DIRM :  MEMORY 12/12 SCALE   1.000 RED  1.08 PRED  0.46 NEXT  0.27 
:TRAVE:  Charge 7.82E-03 (e) CTO  1.77E-02 (e) PW  2.10E-02 (e)
:DIRP :  |MSR1|= 2.587E-02 |PRATT|= 2.792E-02 ANGLE=  77.9 DEGREES
:DIRQ :  |MSR1|= 4.935E-02 |PRATT|= 1.520E-01 ANGLE= 106.3 DEGREES
:DIRT :  |MSR1|= 5.572E-02 |PRATT|= 1.546E-01 ANGLE= 103.1 DEGREES
:MIX  :   MSE1   REGULARIZATION:  7.64E-04 GREED: 0.07103  Newton 1.00  0.3604                
     
       CHARGES OF MIXED CHARGE DENSITY
:CTO   : INTERSTITIAL     UP =     4.149549 DN =     3.723571 TOT =     7.873120
:CPC   : PW Pseudocharge  UP =    11.017107 DN =    10.145798 TOT =    21.162905
:CTO001: CHARGE SPHERE  1 UP =    11.646421 DN =     9.639661 TOT =    21.286082
:CTO002: CHARGE SPHERE  2 UP =     3.641716 DN =     3.746963 TOT =     7.388679

       SPIN MAGNETIC MOMENTS OF MIXED CHARGE DENSITY
:MMINT:  MAGNETIC MOMENT IN INTERSTITIAL  =    0.42598
:MMI001: MAGNETIC MOMENT IN SPHERE   1    =    2.00676
:MMI002: MAGNETIC MOMENT IN SPHERE   2    =   -0.10525
:MMTOT:  SPIN MAGNETIC MOMENT IN CELL     =    4.01851

:NEC03: NUCLEAR AND ELECTRONIC CHARGE     80.00000    80.00000

PW CHANGE     H    K    L      Current       Change    Residue
:PUP001:      0    0    0  3.97121220E-02  1.114E-04  2.081E-04
:PUP003:     -1   -1    0  4.06842481E-02  2.391E-05  1.798E-05
:PUP005:     -1    0   -1  2.01738071E-02 -2.453E-05 -1.725E-04
:PUP006:     -2    0    0 -1.12136319E-02  6.686E-05 -9.416E-06
:PUP007:     -1   -1   -1 -6.49322565E-02  2.317E-04  1.917E-04
:PUP008:     -2   -1    0  3.55697573E-02 -1.040E-04 -7.751E-05
:PUP010:     -2   -1   -1  5.09008968E-02 -2.748E-04 -3.634E-04
:PUP011:     -2   -2    0  1.79267571E-02 -9.553E-05 -5.440E-05
:PUP013:      0    0   -2  8.34876118E-03 -5.741E-05 -7.049E-05
:PUP014:     -3   -1    0  2.08133635E-03 -2.814E-05 -5.784E-05
:PUP016:     -2   -2   -1 -6.87407719E-03  2.863E-05 -6.751E-05
:PUP017:     -1   -1   -2  6.45645652E-03 -9.848E-05 -4.556E-05
  
:PDN001:      0    0    0  3.63153259E-02  4.166E-05 -1.119E-04
:PDN003:     -1   -1    0  3.14770254E-02 -1.188E-04  2.379E-04
:PDN005:     -1    0   -1  7.77949561E-03 -4.291E-04  3.232E-04
:PDN006:     -2    0    0 -1.65789932E-02 -2.986E-04  1.108E-04
:PDN007:     -1   -1   -1 -6.88248683E-02 -5.903E-04  9.211E-05
:PDN008:     -2   -1    0  3.62357207E-02  3.763E-04 -8.816E-06
:PDN010:     -2   -1   -1  5.20317484E-02  3.807E-04  8.984E-05
:PDN011:     -2   -2    0  1.81932328E-02  1.748E-04  1.077E-04
:PDN013:      0    0   -2  9.02572712E-03  1.212E-04  3.218E-05
:PDN014:     -3   -1    0  3.70826796E-03  4.984E-05 -2.063E-04
:PDN016:     -2   -2   -1 -8.05132776E-03 -4.909E-05 -2.706E-04
:PDN017:     -1   -1   -2  9.50424609E-03  7.995E-05  1.031E-04

:ENE  : ********** TOTAL ENERGY IN Ry =        -4799.72819387

       TOTAL FORCE IN mRy/a.u. = |F|     Fx             Fy             Fz     with/without FOR in case.in2
:FOR001:   1.ATOM          0.000          0.000          0.000          0.000 partial forces
:FOR002:   2.ATOM          9.116          0.000          0.000         -9.116 partial forces
       TOTAL FORCE WITH RESPECT TO GLOBAL CARTESIAN COORDINATES:
:FCA001:   1.ATOM                         0.000          0.000          0.000 partial forces
:FCA002:   2.ATOM                         6.446         -6.446          0.000 partial forces
       TOTAL FORCE WITH RESPECT TO THE GLOBAL COORDINATE SYSTEM:
:FGL001:   1.ATOM                 0.000000000     0.000000000     0.000000000 partial forces
:FGL002:   2.ATOM                 6.446309704    -6.446309704     0.000000000 partial forces
