
     Program PWSCF v.7.3 starts on 23Feb2024 at  8:25:24 

     This program is part of the open-source Quantum ESPRESSO suite
     for quantum simulation of materials; please cite
         "P. Giannozzi et al., J. Phys.:Condens. Matter 21 395502 (2009);
         "P. Giannozzi et al., J. Phys.:Condens. Matter 29 465901 (2017);
         "P. Giannozzi et al., J. Chem. Phys. 152 154105 (2020);
          URL http://www.quantum-espresso.org", 
     in publications or presentations arising from this work. More details at
     http://www.quantum-espresso.org/quote

     Parallel version (MPI), running on    12 processors

     MPI processes distributed on     1 nodes
     26412 MiB available memory on the printing compute node when the environment starts

     Reading input from pw.in

     Current dimensions of program PWSCF are:
     Max number of different atomic species (ntypx) = 10
     Max number of k-points (npk) =  40000
     Max angular momentum in pseudopotentials (lmaxx) =  4

     Fixed quantization axis for GGA:     0.000000    0.000000    1.000000

     R & G space division:  proc/nbgrp/npool/nimage =      12
     Subspace diagonalization in iterative solution of the eigenvalue problem:
     a serial algorithm will be used


     Parallelization info
     --------------------
     sticks:   dense  smooth     PW     G-vecs:    dense   smooth      PW
     Min          95      47     15                 2125      738     135
     Max          96      49     16                 2127      740     137
     Sum        1147     571    187                25509     8873    1639

     Using Slab Decomposition



     bravais-lattice index     =            2
     lattice parameter (alat)  =       7.4172  a.u.
     unit-cell volume          =     102.0130 (a.u.)^3
     number of atoms/cell      =            1
     number of atomic types    =            1
     number of electrons       =        18.00
     number of Kohn-Sham states=           26
     kinetic-energy cutoff     =      75.0000  Ry
     charge density cutoff     =     600.0000  Ry
     scf convergence threshold =      1.0E-08
     mixing beta               =       0.7000
     number of iterations used =            8  plain     mixing
     Exchange-correlation= PBE
                           (   1   4   3   4   0   0   0)
     Noncollinear calculation with spin-orbit


     celldm(1)=   7.417175  celldm(2)=   0.000000  celldm(3)=   0.000000
     celldm(4)=   0.000000  celldm(5)=   0.000000  celldm(6)=   0.000000

     crystal axes: (cart. coord. in units of alat)
               a(1) = (  -0.500000   0.000000   0.500000 )  
               a(2) = (   0.000000   0.500000   0.500000 )  
               a(3) = (  -0.500000   0.500000   0.000000 )  

     reciprocal axes: (cart. coord. in units 2 pi/alat)
               b(1) = ( -1.000000 -1.000000  1.000000 )  
               b(2) = (  1.000000  1.000000  1.000000 )  
               b(3) = ( -1.000000  1.000000 -1.000000 )  


     PseudoPot. # 1 for Pt read from file:
     ./Pt.upf
     MD5 check sum: 38b37cc9fce0bd1ebfe8ed3e237ab632
     Pseudo is Norm-conserving + core correction, Zval = 18.0
     Generated using ONCVPSP code by D. R. Hamann
     Using radial grid of 1374 points, 14 beta functions with: 
                l(1) =   0
                l(2) =   0
                l(3) =   1
                l(4) =   1
                l(5) =   1
                l(6) =   1
                l(7) =   2
                l(8) =   2
                l(9) =   2
               l(10) =   2
               l(11) =   3
               l(12) =   3
               l(13) =   3
               l(14) =   3

     atomic species   valence    mass     pseudopotential
     Pt               18.00   195.08400     Pt( 1.00)

     16 Sym. Ops., with inversion, found


                                    s                        frac. trans.

      isym =  1     identity                                     

 Time Reversal            0
 cryst.   s( 1) = (     1          0          0      )
                  (     0          1          0      )
                  (     0          0          1      )

 cart.    s( 1) = (  1.0000000  0.0000000  0.0000000 )
                  (  0.0000000  1.0000000  0.0000000 )
                  (  0.0000000  0.0000000  1.0000000 )


      isym =  2     180 deg rotation - cart. axis [0,0,1]        

 Time Reversal            0
 cryst.   s( 2) = (     0          1         -1      )
                  (     1          0         -1      )
                  (     0          0         -1      )

 cart.    s( 2) = ( -1.0000000  0.0000000  0.0000000 )
                  (  0.0000000 -1.0000000  0.0000000 )
                  (  0.0000000  0.0000000  1.0000000 )


      isym =  3     180 deg rotation - cart. axis [0,1,0]        

 Time Reversal            1
 cryst.   s( 3) = (    -1          0          0      )
                  (    -1          0          1      )
                  (    -1          1          0      )

 cart.    s( 3) = ( -1.0000000  0.0000000  0.0000000 )
                  (  0.0000000  1.0000000  0.0000000 )
                  (  0.0000000  0.0000000 -1.0000000 )


      isym =  4     180 deg rotation - cart. axis [1,0,0]        

 Time Reversal            1
 cryst.   s( 4) = (     0         -1          1      )
                  (     0         -1          0      )
                  (     1         -1          0      )

 cart.    s( 4) = (  1.0000000  0.0000000  0.0000000 )
                  (  0.0000000 -1.0000000  0.0000000 )
                  (  0.0000000  0.0000000 -1.0000000 )


      isym =  5     180 deg rotation - cart. axis [1,1,0]        

 Time Reversal            1
 cryst.   s( 5) = (     0         -1          0      )
                  (    -1          0          0      )
                  (     0          0         -1      )

 cart.    s( 5) = (  0.0000000  1.0000000  0.0000000 )
                  (  1.0000000  0.0000000  0.0000000 )
                  (  0.0000000  0.0000000 -1.0000000 )


      isym =  6     180 deg rotation - cart. axis [1,-1,0]       

 Time Reversal            1
 cryst.   s( 6) = (    -1          0          1      )
                  (     0         -1          1      )
                  (     0          0          1      )

 cart.    s( 6) = (  0.0000000 -1.0000000  0.0000000 )
                  ( -1.0000000  0.0000000  0.0000000 )
                  (  0.0000000  0.0000000 -1.0000000 )


      isym =  7      90 deg rotation - cart. axis [0,0,-1]       

 Time Reversal            0
 cryst.   s( 7) = (     0          1          0      )
                  (     0          1         -1      )
                  (    -1          1          0      )

 cart.    s( 7) = (  0.0000000  1.0000000  0.0000000 )
                  ( -1.0000000  0.0000000  0.0000000 )
                  (  0.0000000  0.0000000  1.0000000 )


      isym =  8      90 deg rotation - cart. axis [0,0,1]        

 Time Reversal            0
 cryst.   s( 8) = (     1          0         -1      )
                  (     1          0          0      )
                  (     1         -1          0      )

 cart.    s( 8) = (  0.0000000 -1.0000000  0.0000000 )
                  (  1.0000000  0.0000000  0.0000000 )
                  (  0.0000000  0.0000000  1.0000000 )


      isym =  9     inversion                                    

 Time Reversal            0
 cryst.   s( 9) = (    -1          0          0      )
                  (     0         -1          0      )
                  (     0          0         -1      )

 cart.    s( 9) = ( -1.0000000  0.0000000  0.0000000 )
                  (  0.0000000 -1.0000000  0.0000000 )
                  (  0.0000000  0.0000000 -1.0000000 )


      isym = 10     inv. 180 deg rotation - cart. axis [0,0,1]   

 Time Reversal            0
 cryst.   s(10) = (     0         -1          1      )
                  (    -1          0          1      )
                  (     0          0          1      )

 cart.    s(10) = (  1.0000000  0.0000000  0.0000000 )
                  (  0.0000000  1.0000000  0.0000000 )
                  (  0.0000000  0.0000000 -1.0000000 )


      isym = 11     inv. 180 deg rotation - cart. axis [0,1,0]   

 Time Reversal            1
 cryst.   s(11) = (     1          0          0      )
                  (     1          0         -1      )
                  (     1         -1          0      )

 cart.    s(11) = (  1.0000000  0.0000000  0.0000000 )
                  (  0.0000000 -1.0000000  0.0000000 )
                  (  0.0000000  0.0000000  1.0000000 )


      isym = 12     inv. 180 deg rotation - cart. axis [1,0,0]   

 Time Reversal            1
 cryst.   s(12) = (     0          1         -1      )
                  (     0          1          0      )
                  (    -1          1          0      )

 cart.    s(12) = ( -1.0000000  0.0000000  0.0000000 )
                  (  0.0000000  1.0000000  0.0000000 )
                  (  0.0000000  0.0000000  1.0000000 )


      isym = 13     inv. 180 deg rotation - cart. axis [1,1,0]   

 Time Reversal            1
 cryst.   s(13) = (     0          1          0      )
                  (     1          0          0      )
                  (     0          0          1      )

 cart.    s(13) = (  0.0000000 -1.0000000  0.0000000 )
                  ( -1.0000000  0.0000000  0.0000000 )
                  (  0.0000000  0.0000000  1.0000000 )


      isym = 14     inv. 180 deg rotation - cart. axis [1,-1,0]  

 Time Reversal            1
 cryst.   s(14) = (     1          0         -1      )
                  (     0          1         -1      )
                  (     0          0         -1      )

 cart.    s(14) = (  0.0000000  1.0000000  0.0000000 )
                  (  1.0000000  0.0000000  0.0000000 )
                  (  0.0000000  0.0000000  1.0000000 )


      isym = 15     inv.  90 deg rotation - cart. axis [0,0,-1]  

 Time Reversal            0
 cryst.   s(15) = (     0         -1          0      )
                  (     0         -1          1      )
                  (     1         -1          0      )

 cart.    s(15) = (  0.0000000 -1.0000000  0.0000000 )
                  (  1.0000000  0.0000000  0.0000000 )
                  (  0.0000000  0.0000000 -1.0000000 )


      isym = 16     inv.  90 deg rotation - cart. axis [0,0,1]   

 Time Reversal            0
 cryst.   s(16) = (    -1          0          1      )
                  (    -1          0          0      )
                  (    -1          1          0      )

 cart.    s(16) = (  0.0000000  1.0000000  0.0000000 )
                  ( -1.0000000  0.0000000  0.0000000 )
                  (  0.0000000  0.0000000 -1.0000000 )


     the magnetic double point group is D_4h(4/mmm) [C_4h (4/m) ]
     using the double point group C_4h (4/m) 
     there are 16 classes and  8 irreducible representations
     the character table:

       E     -E    C4    -C4   C2    -C2   C4^3  -C4^3 i     -i    S4^3  -S4^3
                                                                              
G_5+   1.00 -1.00  0.71 -0.71  0.00  0.00  0.71 -0.71  1.00 -1.00  0.71 -0.71
G_6+   1.00 -1.00  0.71 -0.71  0.00  0.00  0.71 -0.71  1.00 -1.00  0.71 -0.71
G_7+   1.00 -1.00 -0.71  0.71  0.00  0.00 -0.71  0.71  1.00 -1.00 -0.71  0.71
G_8+   1.00 -1.00 -0.71  0.71  0.00  0.00 -0.71  0.71  1.00 -1.00 -0.71  0.71
G_5-   1.00 -1.00  0.71 -0.71  0.00  0.00  0.71 -0.71 -1.00  1.00 -0.71  0.71
G_6-   1.00 -1.00  0.71 -0.71  0.00  0.00  0.71 -0.71 -1.00  1.00 -0.71  0.71
G_7-   1.00 -1.00 -0.71  0.71  0.00  0.00 -0.71  0.71 -1.00  1.00  0.71 -0.71
G_8-   1.00 -1.00 -0.71  0.71  0.00  0.00 -0.71  0.71 -1.00  1.00  0.71 -0.71

       s_h   -s_h  S4    -S4  
                              
G_5+   0.00  0.00  0.71 -0.71
G_6+   0.00  0.00  0.71 -0.71
G_7+   0.00  0.00 -0.71  0.71
G_8+   0.00  0.00 -0.71  0.71
G_5-   0.00  0.00 -0.71  0.71
G_6-   0.00  0.00 -0.71  0.71
G_7-   0.00  0.00  0.71 -0.71
G_8-   0.00  0.00  0.71 -0.71

     imaginary part

       E     -E    C4    -C4   C2    -C2   C4^3  -C4^3 i     -i    S4^3  -S4^3
                                                                              
G_5+   0.00  0.00  0.71 -0.71  1.00 -1.00 -0.71  0.71  0.00  0.00  0.71 -0.71
G_6+   0.00  0.00 -0.71  0.71 -1.00  1.00  0.71 -0.71  0.00  0.00 -0.71  0.71
G_7+   0.00  0.00 -0.71  0.71  1.00 -1.00  0.71 -0.71  0.00  0.00 -0.71  0.71
G_8+   0.00  0.00  0.71 -0.71 -1.00  1.00 -0.71  0.71  0.00  0.00  0.71 -0.71
G_5-   0.00  0.00  0.71 -0.71  1.00 -1.00 -0.71  0.71  0.00  0.00 -0.71  0.71
G_6-   0.00  0.00 -0.71  0.71 -1.00  1.00  0.71 -0.71  0.00  0.00  0.71 -0.71
G_7-   0.00  0.00 -0.71  0.71  1.00 -1.00  0.71 -0.71  0.00  0.00  0.71 -0.71
G_8-   0.00  0.00  0.71 -0.71 -1.00  1.00 -0.71  0.71  0.00  0.00 -0.71  0.71

       s_h   -s_h  S4    -S4  
                              
G_5+   1.00 -1.00 -0.71  0.71
G_6+  -1.00  1.00  0.71 -0.71
G_7+   1.00 -1.00  0.71 -0.71
G_8+  -1.00  1.00 -0.71  0.71
G_5-  -1.00  1.00  0.71 -0.71
G_6-   1.00 -1.00 -0.71  0.71
G_7-  -1.00  1.00 -0.71  0.71
G_8-   1.00 -1.00  0.71 -0.71

     the symmetry operations in each class and the name of the first element:

     E             1
          identity                                               
     -E           -1
          identity E                                             
     C4            4
           90 deg rotation - cart. axis [0,0,1]                  
     -C4          -4
           90 deg rotation - cart. axis [0,0,1] E                
     C2            2
          180 deg rotation - cart. axis [0,0,1]                  
     -C2          -2
          180 deg rotation - cart. axis [0,0,1] E                
     C4^3          3
           90 deg rotation - cart. axis [0,0,-1]                 
     -C4^3        -3
           90 deg rotation - cart. axis [0,0,-1] E               
     i             5
          inversion                                              
     -i           -5
          inversion E                                            
     S4^3          8
          inv.  90 deg rotation - cart. axis [0,0,1]             
     -S4^3        -8
          inv.  90 deg rotation - cart. axis [0,0,1] E           
     s_h           6
          inv. 180 deg rotation - cart. axis [0,0,1]             
     -s_h         -6
          inv. 180 deg rotation - cart. axis [0,0,1] E           
     S4            7
          inv.  90 deg rotation - cart. axis [0,0,-1]            
     -S4          -7
          inv.  90 deg rotation - cart. axis [0,0,-1] E          

   Cartesian axes

     site n.     atom                  positions (alat units)
         1        Pt     tau(   1) = (   0.0000000   0.0000000   0.0000000  )

   Crystallographic axes

     site n.     atom                  positions (cryst. coord.)
         1        Pt     tau(   1) = (  0.0000000  0.0000000  0.0000000  )

     number of k points=   288  Gaussian smearing, width (Ry)=  0.0100
                       cart. coord. in units 2pi/alat
        k(    1) = (   0.0000000   0.0000000   0.0000000), wk =   0.0002963
        k(    2) = (  -0.0666667   0.0666667  -0.0666667), wk =   0.0023704
        k(    3) = (  -0.1333333   0.1333333  -0.1333333), wk =   0.0023704
        k(    4) = (  -0.2000000   0.2000000  -0.2000000), wk =   0.0023704
        k(    5) = (  -0.2666667   0.2666667  -0.2666667), wk =   0.0023704
        k(    6) = (  -0.3333333   0.3333333  -0.3333333), wk =   0.0023704
        k(    7) = (  -0.4000000   0.4000000  -0.4000000), wk =   0.0023704
        k(    8) = (  -0.4666667   0.4666667  -0.4666667), wk =   0.0023704
        k(    9) = (   0.0000000   0.1333333   0.0000000), wk =   0.0011852
        k(   10) = (  -0.0666667   0.2000000  -0.0666667), wk =   0.0047407
        k(   11) = (  -0.1333333   0.2666667  -0.1333333), wk =   0.0047407
        k(   12) = (  -0.2000000   0.3333333  -0.2000000), wk =   0.0047407
        k(   13) = (  -0.2666667   0.4000000  -0.2666667), wk =   0.0047407
        k(   14) = (  -0.3333333   0.4666667  -0.3333333), wk =   0.0047407
        k(   15) = (  -0.4000000   0.5333333  -0.4000000), wk =   0.0047407
        k(   16) = (   0.5333333  -0.4000000   0.5333333), wk =   0.0047407
        k(   17) = (   0.4666667  -0.3333333   0.4666667), wk =   0.0047407
        k(   18) = (   0.4000000  -0.2666667   0.4000000), wk =   0.0047407
        k(   19) = (   0.3333333  -0.2000000   0.3333333), wk =   0.0047407
        k(   20) = (   0.2666667  -0.1333333   0.2666667), wk =   0.0047407
        k(   21) = (   0.2000000  -0.0666667   0.2000000), wk =   0.0047407
        k(   22) = (   0.1333333   0.0000000   0.1333333), wk =   0.0023704
        k(   23) = (   0.0000000   0.2666667   0.0000000), wk =   0.0011852
        k(   24) = (  -0.0666667   0.3333333  -0.0666667), wk =   0.0047407
        k(   25) = (  -0.1333333   0.4000000  -0.1333333), wk =   0.0047407
        k(   26) = (  -0.2000000   0.4666667  -0.2000000), wk =   0.0047407
        k(   27) = (  -0.2666667   0.5333333  -0.2666667), wk =   0.0047407
        k(   28) = (  -0.3333333   0.6000000  -0.3333333), wk =   0.0047407
        k(   29) = (   0.6000000  -0.3333333   0.6000000), wk =   0.0047407
        k(   30) = (   0.5333333  -0.2666667   0.5333333), wk =   0.0047407
        k(   31) = (   0.4666667  -0.2000000   0.4666667), wk =   0.0047407
        k(   32) = (   0.4000000  -0.1333333   0.4000000), wk =   0.0047407
        k(   33) = (   0.3333333  -0.0666667   0.3333333), wk =   0.0047407
        k(   34) = (   0.2666667   0.0000000   0.2666667), wk =   0.0023704
        k(   35) = (   0.0000000   0.4000000   0.0000000), wk =   0.0011852
        k(   36) = (  -0.0666667   0.4666667  -0.0666667), wk =   0.0047407
        k(   37) = (  -0.1333333   0.5333333  -0.1333333), wk =   0.0047407
        k(   38) = (  -0.2000000   0.6000000  -0.2000000), wk =   0.0047407
        k(   39) = (  -0.2666667   0.6666667  -0.2666667), wk =   0.0047407
        k(   40) = (   0.6666667  -0.2666667   0.6666667), wk =   0.0047407
        k(   41) = (   0.6000000  -0.2000000   0.6000000), wk =   0.0047407
        k(   42) = (   0.5333333  -0.1333333   0.5333333), wk =   0.0047407
        k(   43) = (   0.4666667  -0.0666667   0.4666667), wk =   0.0047407
        k(   44) = (   0.4000000   0.0000000   0.4000000), wk =   0.0023704
        k(   45) = (   0.0000000   0.5333333   0.0000000), wk =   0.0011852
        k(   46) = (  -0.0666667   0.6000000  -0.0666667), wk =   0.0047407
        k(   47) = (  -0.1333333   0.6666667  -0.1333333), wk =   0.0047407
        k(   48) = (  -0.2000000   0.7333333  -0.2000000), wk =   0.0047407
        k(   49) = (   0.7333333  -0.2000000   0.7333333), wk =   0.0047407
        k(   50) = (   0.6666667  -0.1333333   0.6666667), wk =   0.0047407
        k(   51) = (   0.6000000  -0.0666667   0.6000000), wk =   0.0047407
        k(   52) = (   0.5333333  -0.0000000   0.5333333), wk =   0.0023704
        k(   53) = (   0.0000000   0.6666667   0.0000000), wk =   0.0011852
        k(   54) = (  -0.0666667   0.7333333  -0.0666667), wk =   0.0047407
        k(   55) = (  -0.1333333   0.8000000  -0.1333333), wk =   0.0047407
        k(   56) = (   0.8000000  -0.1333333   0.8000000), wk =   0.0047407
        k(   57) = (   0.7333333  -0.0666667   0.7333333), wk =   0.0047407
        k(   58) = (   0.6666667  -0.0000000   0.6666667), wk =   0.0023704
        k(   59) = (   0.0000000   0.8000000   0.0000000), wk =   0.0011852
        k(   60) = (  -0.0666667   0.8666667  -0.0666667), wk =   0.0047407
        k(   61) = (   0.8666667  -0.0666667   0.8666667), wk =   0.0047407
        k(   62) = (   0.8000000   0.0000000   0.8000000), wk =   0.0023704
        k(   63) = (   0.0000000   0.9333333   0.0000000), wk =   0.0011852
        k(   64) = (   0.9333333   0.0000000   0.9333333), wk =   0.0023704
        k(   65) = (  -0.1333333   0.2666667   0.0000000), wk =   0.0023704
        k(   66) = (  -0.2000000   0.3333333  -0.0666667), wk =   0.0047407
        k(   67) = (  -0.2666667   0.4000000  -0.1333333), wk =   0.0047407
        k(   68) = (  -0.3333333   0.4666667  -0.2000000), wk =   0.0047407
        k(   69) = (  -0.4000000   0.5333333  -0.2666667), wk =   0.0047407
        k(   70) = (   0.5333333  -0.4000000   0.6666667), wk =   0.0047407
        k(   71) = (  -0.1333333   0.4000000   0.0000000), wk =   0.0023704
        k(   72) = (  -0.2000000   0.4666667  -0.0666667), wk =   0.0047407
        k(   73) = (  -0.2666667   0.5333333  -0.1333333), wk =   0.0047407
        k(   74) = (  -0.3333333   0.6000000  -0.2000000), wk =   0.0047407
        k(   75) = (   0.6000000  -0.3333333   0.7333333), wk =   0.0047407
        k(   76) = (   0.5333333  -0.2666667   0.6666667), wk =   0.0047407
        k(   77) = (   0.4666667  -0.2000000   0.6000000), wk =   0.0047407
        k(   78) = (   0.4000000  -0.1333333   0.5333333), wk =   0.0047407
        k(   79) = (   0.3333333  -0.0666667   0.4666667), wk =   0.0047407
        k(   80) = (   0.2666667   0.0000000   0.4000000), wk =   0.0023704
        k(   81) = (  -0.1333333   0.5333333   0.0000000), wk =   0.0023704
        k(   82) = (  -0.2000000   0.6000000  -0.0666667), wk =   0.0047407
        k(   83) = (  -0.2666667   0.6666667  -0.1333333), wk =   0.0047407
        k(   84) = (   0.6666667  -0.2666667   0.8000000), wk =   0.0047407
        k(   85) = (   0.6000000  -0.2000000   0.7333333), wk =   0.0047407
        k(   86) = (   0.5333333  -0.1333333   0.6666667), wk =   0.0047407
        k(   87) = (   0.4666667  -0.0666667   0.6000000), wk =   0.0047407
        k(   88) = (   0.4000000   0.0000000   0.5333333), wk =   0.0023704
        k(   89) = (  -0.1333333   0.6666667  -0.0000000), wk =   0.0023704
        k(   90) = (  -0.2000000   0.7333333  -0.0666667), wk =   0.0047407
        k(   91) = (   0.7333333  -0.2000000   0.8666667), wk =   0.0047407
        k(   92) = (   0.6666667  -0.1333333   0.8000000), wk =   0.0047407
        k(   93) = (   0.6000000  -0.0666667   0.7333333), wk =   0.0047407
        k(   94) = (   0.5333333  -0.0000000   0.6666667), wk =   0.0023704
        k(   95) = (  -0.1333333   0.8000000   0.0000000), wk =   0.0023704
        k(   96) = (   0.8000000  -0.1333333   0.9333333), wk =   0.0047407
        k(   97) = (   0.7333333  -0.0666667   0.8666667), wk =   0.0047407
        k(   98) = (   0.6666667   0.0000000   0.8000000), wk =   0.0023704
        k(   99) = (   0.8666667  -0.0666667   1.0000000), wk =   0.0023704
        k(  100) = (   0.8000000   0.0000000   0.9333333), wk =   0.0023704
        k(  101) = (  -0.2666667   0.5333333   0.0000000), wk =   0.0023704
        k(  102) = (  -0.3333333   0.6000000  -0.0666667), wk =   0.0047407
        k(  103) = (   0.6000000  -0.3333333   0.8666667), wk =   0.0047407
        k(  104) = (   0.5333333  -0.2666667   0.8000000), wk =   0.0047407
        k(  105) = (  -0.2666667   0.6666667   0.0000000), wk =   0.0023704
        k(  106) = (   0.6666667  -0.2666667   0.9333333), wk =   0.0047407
        k(  107) = (   0.6000000  -0.2000000   0.8666667), wk =   0.0047407
        k(  108) = (   0.5333333  -0.1333333   0.8000000), wk =   0.0047407
        k(  109) = (   0.4666667  -0.0666667   0.7333333), wk =   0.0047407
        k(  110) = (   0.4000000   0.0000000   0.6666667), wk =   0.0023704
        k(  111) = (   0.7333333  -0.2000000   1.0000000), wk =   0.0023704
        k(  112) = (   0.6666667  -0.1333333   0.9333333), wk =   0.0047407
        k(  113) = (   0.6000000  -0.0666667   0.8666667), wk =   0.0047407
        k(  114) = (   0.5333333   0.0000000   0.8000000), wk =   0.0023704
        k(  115) = (   0.7333333  -0.0666667   1.0000000), wk =   0.0023704
        k(  116) = (   0.6666667   0.0000000   0.9333333), wk =   0.0023704
        k(  117) = (   0.6000000  -0.2000000   1.0000000), wk =   0.0023704
        k(  118) = (   0.5333333  -0.1333333   0.9333333), wk =   0.0047407
        k(  119) = (   0.6000000  -0.0666667   1.0000000), wk =   0.0023704
        k(  120) = (   0.5333333  -0.0000000   0.9333333), wk =   0.0023704
        k(  121) = (   0.0000000   0.0000000   0.1333333), wk =   0.0005926
        k(  122) = (  -0.0666667  -0.0666667   0.2000000), wk =   0.0023704
        k(  123) = (  -0.1333333  -0.1333333   0.2666667), wk =   0.0023704
        k(  124) = (  -0.2000000  -0.2000000   0.3333333), wk =   0.0023704
        k(  125) = (  -0.2666667  -0.2666667   0.4000000), wk =   0.0023704
        k(  126) = (  -0.3333333  -0.3333333   0.4666667), wk =   0.0023704
        k(  127) = (  -0.4000000  -0.4000000   0.5333333), wk =   0.0023704
        k(  128) = (   0.5333333   0.5333333  -0.4000000), wk =   0.0023704
        k(  129) = (   0.4666667   0.4666667  -0.3333333), wk =   0.0023704
        k(  130) = (   0.4000000   0.4000000  -0.2666667), wk =   0.0023704
        k(  131) = (   0.3333333   0.3333333  -0.2000000), wk =   0.0023704
        k(  132) = (   0.2666667   0.2666667  -0.1333333), wk =   0.0023704
        k(  133) = (   0.2000000   0.2000000  -0.0666667), wk =   0.0023704
        k(  134) = (   0.1333333   0.1333333   0.0000000), wk =   0.0011852
        k(  135) = (   0.0000000   0.0000000   0.2666667), wk =   0.0005926
        k(  136) = (  -0.0666667  -0.0666667   0.3333333), wk =   0.0023704
        k(  137) = (  -0.1333333  -0.1333333   0.4000000), wk =   0.0023704
        k(  138) = (  -0.2000000  -0.2000000   0.4666667), wk =   0.0023704
        k(  139) = (  -0.2666667  -0.2666667   0.5333333), wk =   0.0023704
        k(  140) = (  -0.3333333  -0.3333333   0.6000000), wk =   0.0023704
        k(  141) = (   0.6000000   0.6000000  -0.3333333), wk =   0.0023704
        k(  142) = (   0.5333333   0.5333333  -0.2666667), wk =   0.0023704
        k(  143) = (   0.4666667   0.4666667  -0.2000000), wk =   0.0023704
        k(  144) = (   0.4000000   0.4000000  -0.1333333), wk =   0.0023704
        k(  145) = (   0.3333333   0.3333333  -0.0666667), wk =   0.0023704
        k(  146) = (   0.2666667   0.2666667   0.0000000), wk =   0.0011852
        k(  147) = (   0.0000000   0.0000000   0.4000000), wk =   0.0005926
        k(  148) = (  -0.0666667  -0.0666667   0.4666667), wk =   0.0023704
        k(  149) = (  -0.1333333  -0.1333333   0.5333333), wk =   0.0023704
        k(  150) = (  -0.2000000  -0.2000000   0.6000000), wk =   0.0023704
        k(  151) = (  -0.2666667  -0.2666667   0.6666667), wk =   0.0023704
        k(  152) = (   0.6666667   0.6666667  -0.2666667), wk =   0.0023704
        k(  153) = (   0.6000000   0.6000000  -0.2000000), wk =   0.0023704
        k(  154) = (   0.5333333   0.5333333  -0.1333333), wk =   0.0023704
        k(  155) = (   0.4666667   0.4666667  -0.0666667), wk =   0.0023704
        k(  156) = (   0.4000000   0.4000000   0.0000000), wk =   0.0011852
        k(  157) = (   0.0000000   0.0000000   0.5333333), wk =   0.0005926
        k(  158) = (  -0.0666667  -0.0666667   0.6000000), wk =   0.0023704
        k(  159) = (  -0.1333333  -0.1333333   0.6666667), wk =   0.0023704
        k(  160) = (  -0.2000000  -0.2000000   0.7333333), wk =   0.0023704
        k(  161) = (   0.7333333   0.7333333  -0.2000000), wk =   0.0023704
        k(  162) = (   0.6666667   0.6666667  -0.1333333), wk =   0.0023704
        k(  163) = (   0.6000000   0.6000000  -0.0666667), wk =   0.0023704
        k(  164) = (   0.5333333   0.5333333   0.0000000), wk =   0.0011852
        k(  165) = (   0.0000000   0.0000000   0.6666667), wk =   0.0005926
        k(  166) = (  -0.0666667  -0.0666667   0.7333333), wk =   0.0023704
        k(  167) = (  -0.1333333  -0.1333333   0.8000000), wk =   0.0023704
        k(  168) = (   0.8000000   0.8000000  -0.1333333), wk =   0.0023704
        k(  169) = (   0.7333333   0.7333333  -0.0666667), wk =   0.0023704
        k(  170) = (   0.6666667   0.6666667   0.0000000), wk =   0.0011852
        k(  171) = (   0.0000000   0.0000000   0.8000000), wk =   0.0005926
        k(  172) = (  -0.0666667  -0.0666667   0.8666667), wk =   0.0023704
        k(  173) = (   0.8666667   0.8666667  -0.0666667), wk =   0.0023704
        k(  174) = (   0.8000000   0.8000000   0.0000000), wk =   0.0011852
        k(  175) = (   0.0000000   0.0000000   0.9333333), wk =   0.0005926
        k(  176) = (   0.9333333   0.9333333   0.0000000), wk =   0.0011852
        k(  177) = (   0.2666667   0.0000000  -0.1333333), wk =   0.0023704
        k(  178) = (   0.0000000  -0.1333333   0.2666667), wk =   0.0023704
        k(  179) = (   0.3333333  -0.0666667  -0.2000000), wk =   0.0047407
        k(  180) = (  -0.0666667  -0.2000000   0.3333333), wk =   0.0047407
        k(  181) = (   0.4000000  -0.1333333  -0.2666667), wk =   0.0047407
        k(  182) = (  -0.1333333  -0.2666667   0.4000000), wk =   0.0047407
        k(  183) = (   0.4666667  -0.2000000  -0.3333333), wk =   0.0047407
        k(  184) = (  -0.2000000  -0.3333333   0.4666667), wk =   0.0047407
        k(  185) = (   0.5333333  -0.2666667  -0.4000000), wk =   0.0047407
        k(  186) = (  -0.2666667  -0.4000000   0.5333333), wk =   0.0047407
        k(  187) = (  -0.4000000   0.6666667   0.5333333), wk =   0.0047407
        k(  188) = (   0.6666667   0.5333333  -0.4000000), wk =   0.0047407
        k(  189) = (   0.4000000   0.0000000  -0.1333333), wk =   0.0023704
        k(  190) = (   0.0000000  -0.1333333   0.4000000), wk =   0.0023704
        k(  191) = (   0.4666667  -0.0666667  -0.2000000), wk =   0.0047407
        k(  192) = (  -0.0666667  -0.2000000   0.4666667), wk =   0.0047407
        k(  193) = (   0.5333333  -0.1333333  -0.2666667), wk =   0.0047407
        k(  194) = (  -0.1333333  -0.2666667   0.5333333), wk =   0.0047407
        k(  195) = (   0.6000000  -0.2000000  -0.3333333), wk =   0.0047407
        k(  196) = (  -0.2000000  -0.3333333   0.6000000), wk =   0.0047407
        k(  197) = (  -0.3333333   0.7333333   0.6000000), wk =   0.0047407
        k(  198) = (   0.7333333   0.6000000  -0.3333333), wk =   0.0047407
        k(  199) = (  -0.2666667   0.6666667   0.5333333), wk =   0.0047407
        k(  200) = (   0.6666667   0.5333333  -0.2666667), wk =   0.0047407
        k(  201) = (  -0.2000000   0.6000000   0.4666667), wk =   0.0047407
        k(  202) = (   0.6000000   0.4666667  -0.2000000), wk =   0.0047407
        k(  203) = (  -0.1333333   0.5333333   0.4000000), wk =   0.0047407
        k(  204) = (   0.5333333   0.4000000  -0.1333333), wk =   0.0047407
        k(  205) = (  -0.0666667   0.4666667   0.3333333), wk =   0.0047407
        k(  206) = (   0.4666667   0.3333333  -0.0666667), wk =   0.0047407
        k(  207) = (   0.0000000   0.4000000   0.2666667), wk =   0.0023704
        k(  208) = (   0.4000000   0.2666667   0.0000000), wk =   0.0023704
        k(  209) = (   0.5333333   0.0000000  -0.1333333), wk =   0.0023704
        k(  210) = (   0.0000000  -0.1333333   0.5333333), wk =   0.0023704
        k(  211) = (   0.6000000  -0.0666667  -0.2000000), wk =   0.0047407
        k(  212) = (  -0.0666667  -0.2000000   0.6000000), wk =   0.0047407
        k(  213) = (   0.6666667  -0.1333333  -0.2666667), wk =   0.0047407
        k(  214) = (  -0.1333333  -0.2666667   0.6666667), wk =   0.0047407
        k(  215) = (  -0.2666667   0.8000000   0.6666667), wk =   0.0047407
        k(  216) = (   0.8000000   0.6666667  -0.2666667), wk =   0.0047407
        k(  217) = (  -0.2000000   0.7333333   0.6000000), wk =   0.0047407
        k(  218) = (   0.7333333   0.6000000  -0.2000000), wk =   0.0047407
        k(  219) = (  -0.1333333   0.6666667   0.5333333), wk =   0.0047407
        k(  220) = (   0.6666667   0.5333333  -0.1333333), wk =   0.0047407
        k(  221) = (  -0.0666667   0.6000000   0.4666667), wk =   0.0047407
        k(  222) = (   0.6000000   0.4666667  -0.0666667), wk =   0.0047407
        k(  223) = (   0.0000000   0.5333333   0.4000000), wk =   0.0023704
        k(  224) = (   0.5333333   0.4000000   0.0000000), wk =   0.0023704
        k(  225) = (   0.6666667   0.0000000  -0.1333333), wk =   0.0023704
        k(  226) = (   0.0000000  -0.1333333   0.6666667), wk =   0.0023704
        k(  227) = (   0.7333333  -0.0666667  -0.2000000), wk =   0.0047407
        k(  228) = (  -0.0666667  -0.2000000   0.7333333), wk =   0.0047407
        k(  229) = (  -0.2000000   0.8666667   0.7333333), wk =   0.0047407
        k(  230) = (   0.8666667   0.7333333  -0.2000000), wk =   0.0047407
        k(  231) = (  -0.1333333   0.8000000   0.6666667), wk =   0.0047407
        k(  232) = (   0.8000000   0.6666667  -0.1333333), wk =   0.0047407
        k(  233) = (  -0.0666667   0.7333333   0.6000000), wk =   0.0047407
        k(  234) = (   0.7333333   0.6000000  -0.0666667), wk =   0.0047407
        k(  235) = (   0.0000000   0.6666667   0.5333333), wk =   0.0023704
        k(  236) = (   0.6666667   0.5333333   0.0000000), wk =   0.0023704
        k(  237) = (   0.8000000   0.0000000  -0.1333333), wk =   0.0023704
        k(  238) = (   0.0000000  -0.1333333   0.8000000), wk =   0.0023704
        k(  239) = (  -0.1333333   0.9333333   0.8000000), wk =   0.0047407
        k(  240) = (   0.9333333   0.8000000  -0.1333333), wk =   0.0047407
        k(  241) = (  -0.0666667   0.8666667   0.7333333), wk =   0.0047407
        k(  242) = (   0.8666667   0.7333333  -0.0666667), wk =   0.0047407
        k(  243) = (   0.0000000   0.8000000   0.6666667), wk =   0.0023704
        k(  244) = (   0.8000000   0.6666667   0.0000000), wk =   0.0023704
        k(  245) = (  -0.0666667   1.0000000   0.8666667), wk =   0.0023704
        k(  246) = (   1.0000000   0.8666667  -0.0666667), wk =   0.0023704
        k(  247) = (   0.0000000   0.9333333   0.8000000), wk =   0.0023704
        k(  248) = (   0.9333333   0.8000000   0.0000000), wk =   0.0023704
        k(  249) = (   0.5333333   0.0000000  -0.2666667), wk =   0.0023704
        k(  250) = (   0.0000000  -0.2666667   0.5333333), wk =   0.0023704
        k(  251) = (   0.6000000  -0.0666667  -0.3333333), wk =   0.0047407
        k(  252) = (  -0.0666667  -0.3333333   0.6000000), wk =   0.0047407
        k(  253) = (  -0.3333333   0.8666667   0.6000000), wk =   0.0047407
        k(  254) = (   0.8666667   0.6000000  -0.3333333), wk =   0.0047407
        k(  255) = (  -0.2666667   0.8000000   0.5333333), wk =   0.0047407
        k(  256) = (   0.8000000   0.5333333  -0.2666667), wk =   0.0047407
        k(  257) = (   0.6666667   0.0000000  -0.2666667), wk =   0.0023704
        k(  258) = (   0.0000000  -0.2666667   0.6666667), wk =   0.0023704
        k(  259) = (  -0.2666667   0.9333333   0.6666667), wk =   0.0047407
        k(  260) = (   0.9333333   0.6666667  -0.2666667), wk =   0.0047407
        k(  261) = (  -0.2000000   0.8666667   0.6000000), wk =   0.0047407
        k(  262) = (   0.8666667   0.6000000  -0.2000000), wk =   0.0047407
        k(  263) = (  -0.1333333   0.8000000   0.5333333), wk =   0.0047407
        k(  264) = (   0.8000000   0.5333333  -0.1333333), wk =   0.0047407
        k(  265) = (  -0.0666667   0.7333333   0.4666667), wk =   0.0047407
        k(  266) = (   0.7333333   0.4666667  -0.0666667), wk =   0.0047407
        k(  267) = (  -0.0000000   0.6666667   0.4000000), wk =   0.0023704
        k(  268) = (   0.6666667   0.4000000   0.0000000), wk =   0.0023704
        k(  269) = (  -0.2000000   1.0000000   0.7333333), wk =   0.0023704
        k(  270) = (   1.0000000   0.7333333  -0.2000000), wk =   0.0023704
        k(  271) = (  -0.1333333   0.9333333   0.6666667), wk =   0.0047407
        k(  272) = (   0.9333333   0.6666667  -0.1333333), wk =   0.0047407
        k(  273) = (  -0.0666667   0.8666667   0.6000000), wk =   0.0047407
        k(  274) = (   0.8666667   0.6000000  -0.0666667), wk =   0.0047407
        k(  275) = (   0.0000000   0.8000000   0.5333333), wk =   0.0023704
        k(  276) = (   0.8000000   0.5333333   0.0000000), wk =   0.0023704
        k(  277) = (  -0.0666667   1.0000000   0.7333333), wk =   0.0023704
        k(  278) = (   1.0000000   0.7333333  -0.0666667), wk =   0.0023704
        k(  279) = (   0.0000000   0.9333333   0.6666667), wk =   0.0023704
        k(  280) = (   0.9333333   0.6666667   0.0000000), wk =   0.0023704
        k(  281) = (  -0.2000000   1.0000000   0.6000000), wk =   0.0023704
        k(  282) = (   1.0000000   0.6000000  -0.2000000), wk =   0.0023704
        k(  283) = (  -0.1333333   0.9333333   0.5333333), wk =   0.0047407
        k(  284) = (   0.9333333   0.5333333  -0.1333333), wk =   0.0047407
        k(  285) = (  -0.0666667   1.0000000   0.6000000), wk =   0.0023704
        k(  286) = (   1.0000000   0.6000000  -0.0666667), wk =   0.0023704
        k(  287) = (  -0.0000000   0.9333333   0.5333333), wk =   0.0023704
        k(  288) = (   0.9333333   0.5333333  -0.0000000), wk =   0.0023704

                       cryst. coord.
        k(    1) = (   0.0000000   0.0000000   0.0000000), wk =   0.0002963
        k(    2) = (   0.0000000   0.0000000   0.0666667), wk =   0.0023704
        k(    3) = (   0.0000000   0.0000000   0.1333333), wk =   0.0023704
        k(    4) = (   0.0000000   0.0000000   0.2000000), wk =   0.0023704
        k(    5) = (   0.0000000   0.0000000   0.2666667), wk =   0.0023704
        k(    6) = (   0.0000000   0.0000000   0.3333333), wk =   0.0023704
        k(    7) = (   0.0000000   0.0000000   0.4000000), wk =   0.0023704
        k(    8) = (   0.0000000   0.0000000   0.4666667), wk =   0.0023704
        k(    9) = (   0.0000000   0.0666667   0.0666667), wk =   0.0011852
        k(   10) = (   0.0000000   0.0666667   0.1333333), wk =   0.0047407
        k(   11) = (   0.0000000   0.0666667   0.2000000), wk =   0.0047407
        k(   12) = (   0.0000000   0.0666667   0.2666667), wk =   0.0047407
        k(   13) = (   0.0000000   0.0666667   0.3333333), wk =   0.0047407
        k(   14) = (   0.0000000   0.0666667   0.4000000), wk =   0.0047407
        k(   15) = (   0.0000000   0.0666667   0.4666667), wk =   0.0047407
        k(   16) = (   0.0000000   0.0666667  -0.4666667), wk =   0.0047407
        k(   17) = (   0.0000000   0.0666667  -0.4000000), wk =   0.0047407
        k(   18) = (   0.0000000   0.0666667  -0.3333333), wk =   0.0047407
        k(   19) = (   0.0000000   0.0666667  -0.2666667), wk =   0.0047407
        k(   20) = (   0.0000000   0.0666667  -0.2000000), wk =   0.0047407
        k(   21) = (   0.0000000   0.0666667  -0.1333333), wk =   0.0047407
        k(   22) = (   0.0000000   0.0666667  -0.0666667), wk =   0.0023704
        k(   23) = (   0.0000000   0.1333333   0.1333333), wk =   0.0011852
        k(   24) = (   0.0000000   0.1333333   0.2000000), wk =   0.0047407
        k(   25) = (   0.0000000   0.1333333   0.2666667), wk =   0.0047407
        k(   26) = (   0.0000000   0.1333333   0.3333333), wk =   0.0047407
        k(   27) = (   0.0000000   0.1333333   0.4000000), wk =   0.0047407
        k(   28) = (   0.0000000   0.1333333   0.4666667), wk =   0.0047407
        k(   29) = (   0.0000000   0.1333333  -0.4666667), wk =   0.0047407
        k(   30) = (   0.0000000   0.1333333  -0.4000000), wk =   0.0047407
        k(   31) = (   0.0000000   0.1333333  -0.3333333), wk =   0.0047407
        k(   32) = (   0.0000000   0.1333333  -0.2666667), wk =   0.0047407
        k(   33) = (   0.0000000   0.1333333  -0.2000000), wk =   0.0047407
        k(   34) = (   0.0000000   0.1333333  -0.1333333), wk =   0.0023704
        k(   35) = (   0.0000000   0.2000000   0.2000000), wk =   0.0011852
        k(   36) = (   0.0000000   0.2000000   0.2666667), wk =   0.0047407
        k(   37) = (   0.0000000   0.2000000   0.3333333), wk =   0.0047407
        k(   38) = (   0.0000000   0.2000000   0.4000000), wk =   0.0047407
        k(   39) = (   0.0000000   0.2000000   0.4666667), wk =   0.0047407
        k(   40) = (   0.0000000   0.2000000  -0.4666667), wk =   0.0047407
        k(   41) = (   0.0000000   0.2000000  -0.4000000), wk =   0.0047407
        k(   42) = (   0.0000000   0.2000000  -0.3333333), wk =   0.0047407
        k(   43) = (   0.0000000   0.2000000  -0.2666667), wk =   0.0047407
        k(   44) = (   0.0000000   0.2000000  -0.2000000), wk =   0.0023704
        k(   45) = (   0.0000000   0.2666667   0.2666667), wk =   0.0011852
        k(   46) = (   0.0000000   0.2666667   0.3333333), wk =   0.0047407
        k(   47) = (   0.0000000   0.2666667   0.4000000), wk =   0.0047407
        k(   48) = (   0.0000000   0.2666667   0.4666667), wk =   0.0047407
        k(   49) = (   0.0000000   0.2666667  -0.4666667), wk =   0.0047407
        k(   50) = (   0.0000000   0.2666667  -0.4000000), wk =   0.0047407
        k(   51) = (   0.0000000   0.2666667  -0.3333333), wk =   0.0047407
        k(   52) = (   0.0000000   0.2666667  -0.2666667), wk =   0.0023704
        k(   53) = (   0.0000000   0.3333333   0.3333333), wk =   0.0011852
        k(   54) = (   0.0000000   0.3333333   0.4000000), wk =   0.0047407
        k(   55) = (   0.0000000   0.3333333   0.4666667), wk =   0.0047407
        k(   56) = (   0.0000000   0.3333333  -0.4666667), wk =   0.0047407
        k(   57) = (   0.0000000   0.3333333  -0.4000000), wk =   0.0047407
        k(   58) = (   0.0000000   0.3333333  -0.3333333), wk =   0.0023704
        k(   59) = (   0.0000000   0.4000000   0.4000000), wk =   0.0011852
        k(   60) = (   0.0000000   0.4000000   0.4666667), wk =   0.0047407
        k(   61) = (   0.0000000   0.4000000  -0.4666667), wk =   0.0047407
        k(   62) = (   0.0000000   0.4000000  -0.4000000), wk =   0.0023704
        k(   63) = (   0.0000000   0.4666667   0.4666667), wk =   0.0011852
        k(   64) = (   0.0000000   0.4666667  -0.4666667), wk =   0.0023704
        k(   65) = (   0.0666667   0.1333333   0.2000000), wk =   0.0023704
        k(   66) = (   0.0666667   0.1333333   0.2666667), wk =   0.0047407
        k(   67) = (   0.0666667   0.1333333   0.3333333), wk =   0.0047407
        k(   68) = (   0.0666667   0.1333333   0.4000000), wk =   0.0047407
        k(   69) = (   0.0666667   0.1333333   0.4666667), wk =   0.0047407
        k(   70) = (   0.0666667   0.1333333  -0.4666667), wk =   0.0047407
        k(   71) = (   0.0666667   0.2000000   0.2666667), wk =   0.0023704
        k(   72) = (   0.0666667   0.2000000   0.3333333), wk =   0.0047407
        k(   73) = (   0.0666667   0.2000000   0.4000000), wk =   0.0047407
        k(   74) = (   0.0666667   0.2000000   0.4666667), wk =   0.0047407
        k(   75) = (   0.0666667   0.2000000  -0.4666667), wk =   0.0047407
        k(   76) = (   0.0666667   0.2000000  -0.4000000), wk =   0.0047407
        k(   77) = (   0.0666667   0.2000000  -0.3333333), wk =   0.0047407
        k(   78) = (   0.0666667   0.2000000  -0.2666667), wk =   0.0047407
        k(   79) = (   0.0666667   0.2000000  -0.2000000), wk =   0.0047407
        k(   80) = (   0.0666667   0.2000000  -0.1333333), wk =   0.0023704
        k(   81) = (   0.0666667   0.2666667   0.3333333), wk =   0.0023704
        k(   82) = (   0.0666667   0.2666667   0.4000000), wk =   0.0047407
        k(   83) = (   0.0666667   0.2666667   0.4666667), wk =   0.0047407
        k(   84) = (   0.0666667   0.2666667  -0.4666667), wk =   0.0047407
        k(   85) = (   0.0666667   0.2666667  -0.4000000), wk =   0.0047407
        k(   86) = (   0.0666667   0.2666667  -0.3333333), wk =   0.0047407
        k(   87) = (   0.0666667   0.2666667  -0.2666667), wk =   0.0047407
        k(   88) = (   0.0666667   0.2666667  -0.2000000), wk =   0.0023704
        k(   89) = (   0.0666667   0.3333333   0.4000000), wk =   0.0023704
        k(   90) = (   0.0666667   0.3333333   0.4666667), wk =   0.0047407
        k(   91) = (   0.0666667   0.3333333  -0.4666667), wk =   0.0047407
        k(   92) = (   0.0666667   0.3333333  -0.4000000), wk =   0.0047407
        k(   93) = (   0.0666667   0.3333333  -0.3333333), wk =   0.0047407
        k(   94) = (   0.0666667   0.3333333  -0.2666667), wk =   0.0023704
        k(   95) = (   0.0666667   0.4000000   0.4666667), wk =   0.0023704
        k(   96) = (   0.0666667   0.4000000  -0.4666667), wk =   0.0047407
        k(   97) = (   0.0666667   0.4000000  -0.4000000), wk =   0.0047407
        k(   98) = (   0.0666667   0.4000000  -0.3333333), wk =   0.0023704
        k(   99) = (   0.0666667   0.4666667  -0.4666667), wk =   0.0023704
        k(  100) = (   0.0666667   0.4666667  -0.4000000), wk =   0.0023704
        k(  101) = (   0.1333333   0.2666667   0.4000000), wk =   0.0023704
        k(  102) = (   0.1333333   0.2666667   0.4666667), wk =   0.0047407
        k(  103) = (   0.1333333   0.2666667  -0.4666667), wk =   0.0047407
        k(  104) = (   0.1333333   0.2666667  -0.4000000), wk =   0.0047407
        k(  105) = (   0.1333333   0.3333333   0.4666667), wk =   0.0023704
        k(  106) = (   0.1333333   0.3333333  -0.4666667), wk =   0.0047407
        k(  107) = (   0.1333333   0.3333333  -0.4000000), wk =   0.0047407
        k(  108) = (   0.1333333   0.3333333  -0.3333333), wk =   0.0047407
        k(  109) = (   0.1333333   0.3333333  -0.2666667), wk =   0.0047407
        k(  110) = (   0.1333333   0.3333333  -0.2000000), wk =   0.0023704
        k(  111) = (   0.1333333   0.4000000  -0.4666667), wk =   0.0023704
        k(  112) = (   0.1333333   0.4000000  -0.4000000), wk =   0.0047407
        k(  113) = (   0.1333333   0.4000000  -0.3333333), wk =   0.0047407
        k(  114) = (   0.1333333   0.4000000  -0.2666667), wk =   0.0023704
        k(  115) = (   0.1333333   0.4666667  -0.4000000), wk =   0.0023704
        k(  116) = (   0.1333333   0.4666667  -0.3333333), wk =   0.0023704
        k(  117) = (   0.2000000   0.4000000  -0.4000000), wk =   0.0023704
        k(  118) = (   0.2000000   0.4000000  -0.3333333), wk =   0.0047407
        k(  119) = (   0.2000000   0.4666667  -0.3333333), wk =   0.0023704
        k(  120) = (   0.2000000   0.4666667  -0.2666667), wk =   0.0023704
        k(  121) = (   0.0666667   0.0666667   0.0000000), wk =   0.0005926
        k(  122) = (   0.1333333   0.0666667   0.0000000), wk =   0.0023704
        k(  123) = (   0.2000000   0.0666667   0.0000000), wk =   0.0023704
        k(  124) = (   0.2666667   0.0666667   0.0000000), wk =   0.0023704
        k(  125) = (   0.3333333   0.0666667   0.0000000), wk =   0.0023704
        k(  126) = (   0.4000000   0.0666667   0.0000000), wk =   0.0023704
        k(  127) = (   0.4666667   0.0666667   0.0000000), wk =   0.0023704
        k(  128) = (  -0.4666667   0.0666667   0.0000000), wk =   0.0023704
        k(  129) = (  -0.4000000   0.0666667   0.0000000), wk =   0.0023704
        k(  130) = (  -0.3333333   0.0666667   0.0000000), wk =   0.0023704
        k(  131) = (  -0.2666667   0.0666667   0.0000000), wk =   0.0023704
        k(  132) = (  -0.2000000   0.0666667   0.0000000), wk =   0.0023704
        k(  133) = (  -0.1333333   0.0666667   0.0000000), wk =   0.0023704
        k(  134) = (  -0.0666667   0.0666667   0.0000000), wk =   0.0011852
        k(  135) = (   0.1333333   0.1333333   0.0000000), wk =   0.0005926
        k(  136) = (   0.2000000   0.1333333   0.0000000), wk =   0.0023704
        k(  137) = (   0.2666667   0.1333333   0.0000000), wk =   0.0023704
        k(  138) = (   0.3333333   0.1333333   0.0000000), wk =   0.0023704
        k(  139) = (   0.4000000   0.1333333   0.0000000), wk =   0.0023704
        k(  140) = (   0.4666667   0.1333333   0.0000000), wk =   0.0023704
        k(  141) = (  -0.4666667   0.1333333   0.0000000), wk =   0.0023704
        k(  142) = (  -0.4000000   0.1333333   0.0000000), wk =   0.0023704
        k(  143) = (  -0.3333333   0.1333333   0.0000000), wk =   0.0023704
        k(  144) = (  -0.2666667   0.1333333   0.0000000), wk =   0.0023704
        k(  145) = (  -0.2000000   0.1333333   0.0000000), wk =   0.0023704
        k(  146) = (  -0.1333333   0.1333333   0.0000000), wk =   0.0011852
        k(  147) = (   0.2000000   0.2000000   0.0000000), wk =   0.0005926
        k(  148) = (   0.2666667   0.2000000   0.0000000), wk =   0.0023704
        k(  149) = (   0.3333333   0.2000000   0.0000000), wk =   0.0023704
        k(  150) = (   0.4000000   0.2000000   0.0000000), wk =   0.0023704
        k(  151) = (   0.4666667   0.2000000   0.0000000), wk =   0.0023704
        k(  152) = (  -0.4666667   0.2000000   0.0000000), wk =   0.0023704
        k(  153) = (  -0.4000000   0.2000000   0.0000000), wk =   0.0023704
        k(  154) = (  -0.3333333   0.2000000   0.0000000), wk =   0.0023704
        k(  155) = (  -0.2666667   0.2000000   0.0000000), wk =   0.0023704
        k(  156) = (  -0.2000000   0.2000000   0.0000000), wk =   0.0011852
        k(  157) = (   0.2666667   0.2666667   0.0000000), wk =   0.0005926
        k(  158) = (   0.3333333   0.2666667   0.0000000), wk =   0.0023704
        k(  159) = (   0.4000000   0.2666667   0.0000000), wk =   0.0023704
        k(  160) = (   0.4666667   0.2666667   0.0000000), wk =   0.0023704
        k(  161) = (  -0.4666667   0.2666667   0.0000000), wk =   0.0023704
        k(  162) = (  -0.4000000   0.2666667   0.0000000), wk =   0.0023704
        k(  163) = (  -0.3333333   0.2666667   0.0000000), wk =   0.0023704
        k(  164) = (  -0.2666667   0.2666667   0.0000000), wk =   0.0011852
        k(  165) = (   0.3333333   0.3333333   0.0000000), wk =   0.0005926
        k(  166) = (   0.4000000   0.3333333   0.0000000), wk =   0.0023704
        k(  167) = (   0.4666667   0.3333333   0.0000000), wk =   0.0023704
        k(  168) = (  -0.4666667   0.3333333   0.0000000), wk =   0.0023704
        k(  169) = (  -0.4000000   0.3333333   0.0000000), wk =   0.0023704
        k(  170) = (  -0.3333333   0.3333333   0.0000000), wk =   0.0011852
        k(  171) = (   0.4000000   0.4000000   0.0000000), wk =   0.0005926
        k(  172) = (   0.4666667   0.4000000   0.0000000), wk =   0.0023704
        k(  173) = (  -0.4666667   0.4000000   0.0000000), wk =   0.0023704
        k(  174) = (  -0.4000000   0.4000000   0.0000000), wk =   0.0011852
        k(  175) = (   0.4666667   0.4666667   0.0000000), wk =   0.0005926
        k(  176) = (  -0.4666667   0.4666667   0.0000000), wk =   0.0011852
        k(  177) = (  -0.2000000  -0.0666667  -0.1333333), wk =   0.0023704
        k(  178) = (   0.1333333   0.0666667  -0.0666667), wk =   0.0023704
        k(  179) = (  -0.2666667  -0.1333333  -0.2000000), wk =   0.0047407
        k(  180) = (   0.2000000   0.0666667  -0.0666667), wk =   0.0047407
        k(  181) = (  -0.3333333  -0.2000000  -0.2666667), wk =   0.0047407
        k(  182) = (   0.2666667   0.0666667  -0.0666667), wk =   0.0047407
        k(  183) = (  -0.4000000  -0.2666667  -0.3333333), wk =   0.0047407
        k(  184) = (   0.3333333   0.0666667  -0.0666667), wk =   0.0047407
        k(  185) = (  -0.4666667  -0.3333333  -0.4000000), wk =   0.0047407
        k(  186) = (   0.4000000   0.0666667  -0.0666667), wk =   0.0047407
        k(  187) = (   0.4666667   0.6000000   0.5333333), wk =   0.0047407
        k(  188) = (  -0.5333333   0.0666667  -0.0666667), wk =   0.0047407
        k(  189) = (  -0.2666667  -0.0666667  -0.2000000), wk =   0.0023704
        k(  190) = (   0.2000000   0.1333333  -0.0666667), wk =   0.0023704
        k(  191) = (  -0.3333333  -0.1333333  -0.2666667), wk =   0.0047407
        k(  192) = (   0.2666667   0.1333333  -0.0666667), wk =   0.0047407
        k(  193) = (  -0.4000000  -0.2000000  -0.3333333), wk =   0.0047407
        k(  194) = (   0.3333333   0.1333333  -0.0666667), wk =   0.0047407
        k(  195) = (  -0.4666667  -0.2666667  -0.4000000), wk =   0.0047407
        k(  196) = (   0.4000000   0.1333333  -0.0666667), wk =   0.0047407
        k(  197) = (   0.4666667   0.6666667   0.5333333), wk =   0.0047407
        k(  198) = (  -0.5333333   0.1333333  -0.0666667), wk =   0.0047407
        k(  199) = (   0.4000000   0.6000000   0.4666667), wk =   0.0047407
        k(  200) = (  -0.4666667   0.1333333  -0.0666667), wk =   0.0047407
        k(  201) = (   0.3333333   0.5333333   0.4000000), wk =   0.0047407
        k(  202) = (  -0.4000000   0.1333333  -0.0666667), wk =   0.0047407
        k(  203) = (   0.2666667   0.4666667   0.3333333), wk =   0.0047407
        k(  204) = (  -0.3333333   0.1333333  -0.0666667), wk =   0.0047407
        k(  205) = (   0.2000000   0.4000000   0.2666667), wk =   0.0047407
        k(  206) = (  -0.2666667   0.1333333  -0.0666667), wk =   0.0047407
        k(  207) = (   0.1333333   0.3333333   0.2000000), wk =   0.0023704
        k(  208) = (  -0.2000000   0.1333333  -0.0666667), wk =   0.0023704
        k(  209) = (  -0.3333333  -0.0666667  -0.2666667), wk =   0.0023704
        k(  210) = (   0.2666667   0.2000000  -0.0666667), wk =   0.0023704
        k(  211) = (  -0.4000000  -0.1333333  -0.3333333), wk =   0.0047407
        k(  212) = (   0.3333333   0.2000000  -0.0666667), wk =   0.0047407
        k(  213) = (  -0.4666667  -0.2000000  -0.4000000), wk =   0.0047407
        k(  214) = (   0.4000000   0.2000000  -0.0666667), wk =   0.0047407
        k(  215) = (   0.4666667   0.7333333   0.5333333), wk =   0.0047407
        k(  216) = (  -0.5333333   0.2000000  -0.0666667), wk =   0.0047407
        k(  217) = (   0.4000000   0.6666667   0.4666667), wk =   0.0047407
        k(  218) = (  -0.4666667   0.2000000  -0.0666667), wk =   0.0047407
        k(  219) = (   0.3333333   0.6000000   0.4000000), wk =   0.0047407
        k(  220) = (  -0.4000000   0.2000000  -0.0666667), wk =   0.0047407
        k(  221) = (   0.2666667   0.5333333   0.3333333), wk =   0.0047407
        k(  222) = (  -0.3333333   0.2000000  -0.0666667), wk =   0.0047407
        k(  223) = (   0.2000000   0.4666667   0.2666667), wk =   0.0023704
        k(  224) = (  -0.2666667   0.2000000  -0.0666667), wk =   0.0023704
        k(  225) = (  -0.4000000  -0.0666667  -0.3333333), wk =   0.0023704
        k(  226) = (   0.3333333   0.2666667  -0.0666667), wk =   0.0023704
        k(  227) = (  -0.4666667  -0.1333333  -0.4000000), wk =   0.0047407
        k(  228) = (   0.4000000   0.2666667  -0.0666667), wk =   0.0047407
        k(  229) = (   0.4666667   0.8000000   0.5333333), wk =   0.0047407
        k(  230) = (  -0.5333333   0.2666667  -0.0666667), wk =   0.0047407
        k(  231) = (   0.4000000   0.7333333   0.4666667), wk =   0.0047407
        k(  232) = (  -0.4666667   0.2666667  -0.0666667), wk =   0.0047407
        k(  233) = (   0.3333333   0.6666667   0.4000000), wk =   0.0047407
        k(  234) = (  -0.4000000   0.2666667  -0.0666667), wk =   0.0047407
        k(  235) = (   0.2666667   0.6000000   0.3333333), wk =   0.0023704
        k(  236) = (  -0.3333333   0.2666667  -0.0666667), wk =   0.0023704
        k(  237) = (  -0.4666667  -0.0666667  -0.4000000), wk =   0.0023704
        k(  238) = (   0.4000000   0.3333333  -0.0666667), wk =   0.0023704
        k(  239) = (   0.4666667   0.8666667   0.5333333), wk =   0.0047407
        k(  240) = (  -0.5333333   0.3333333  -0.0666667), wk =   0.0047407
        k(  241) = (   0.4000000   0.8000000   0.4666667), wk =   0.0047407
        k(  242) = (  -0.4666667   0.3333333  -0.0666667), wk =   0.0047407
        k(  243) = (   0.3333333   0.7333333   0.4000000), wk =   0.0023704
        k(  244) = (  -0.4000000   0.3333333  -0.0666667), wk =   0.0023704
        k(  245) = (   0.4666667   0.9333333   0.5333333), wk =   0.0023704
        k(  246) = (  -0.5333333   0.4000000  -0.0666667), wk =   0.0023704
        k(  247) = (   0.4000000   0.8666667   0.4666667), wk =   0.0023704
        k(  248) = (  -0.4666667   0.4000000  -0.0666667), wk =   0.0023704
        k(  249) = (  -0.4000000  -0.1333333  -0.2666667), wk =   0.0023704
        k(  250) = (   0.2666667   0.1333333  -0.1333333), wk =   0.0023704
        k(  251) = (  -0.4666667  -0.2000000  -0.3333333), wk =   0.0047407
        k(  252) = (   0.3333333   0.1333333  -0.1333333), wk =   0.0047407
        k(  253) = (   0.4666667   0.7333333   0.6000000), wk =   0.0047407
        k(  254) = (  -0.6000000   0.1333333  -0.1333333), wk =   0.0047407
        k(  255) = (   0.4000000   0.6666667   0.5333333), wk =   0.0047407
        k(  256) = (  -0.5333333   0.1333333  -0.1333333), wk =   0.0047407
        k(  257) = (  -0.4666667  -0.1333333  -0.3333333), wk =   0.0023704
        k(  258) = (   0.3333333   0.2000000  -0.1333333), wk =   0.0023704
        k(  259) = (   0.4666667   0.8000000   0.6000000), wk =   0.0047407
        k(  260) = (  -0.6000000   0.2000000  -0.1333333), wk =   0.0047407
        k(  261) = (   0.4000000   0.7333333   0.5333333), wk =   0.0047407
        k(  262) = (  -0.5333333   0.2000000  -0.1333333), wk =   0.0047407
        k(  263) = (   0.3333333   0.6666667   0.4666667), wk =   0.0047407
        k(  264) = (  -0.4666667   0.2000000  -0.1333333), wk =   0.0047407
        k(  265) = (   0.2666667   0.6000000   0.4000000), wk =   0.0047407
        k(  266) = (  -0.4000000   0.2000000  -0.1333333), wk =   0.0047407
        k(  267) = (   0.2000000   0.5333333   0.3333333), wk =   0.0023704
        k(  268) = (  -0.3333333   0.2000000  -0.1333333), wk =   0.0023704
        k(  269) = (   0.4666667   0.8666667   0.6000000), wk =   0.0023704
        k(  270) = (  -0.6000000   0.2666667  -0.1333333), wk =   0.0023704
        k(  271) = (   0.4000000   0.8000000   0.5333333), wk =   0.0047407
        k(  272) = (  -0.5333333   0.2666667  -0.1333333), wk =   0.0047407
        k(  273) = (   0.3333333   0.7333333   0.4666667), wk =   0.0047407
        k(  274) = (  -0.4666667   0.2666667  -0.1333333), wk =   0.0047407
        k(  275) = (   0.2666667   0.6666667   0.4000000), wk =   0.0023704
        k(  276) = (  -0.4000000   0.2666667  -0.1333333), wk =   0.0023704
        k(  277) = (   0.4000000   0.8666667   0.5333333), wk =   0.0023704
        k(  278) = (  -0.5333333   0.3333333  -0.1333333), wk =   0.0023704
        k(  279) = (   0.3333333   0.8000000   0.4666667), wk =   0.0023704
        k(  280) = (  -0.4666667   0.3333333  -0.1333333), wk =   0.0023704
        k(  281) = (   0.4000000   0.8000000   0.6000000), wk =   0.0023704
        k(  282) = (  -0.6000000   0.2000000  -0.2000000), wk =   0.0023704
        k(  283) = (   0.3333333   0.7333333   0.5333333), wk =   0.0047407
        k(  284) = (  -0.5333333   0.2000000  -0.2000000), wk =   0.0047407
        k(  285) = (   0.3333333   0.8000000   0.5333333), wk =   0.0023704
        k(  286) = (  -0.5333333   0.2666667  -0.2000000), wk =   0.0023704
        k(  287) = (   0.2666667   0.7333333   0.4666667), wk =   0.0023704
        k(  288) = (  -0.4666667   0.2666667  -0.2000000), wk =   0.0023704

     Dense  grid:    25509 G-vectors     FFT dimensions: (  45,  45,  45)

     Smooth grid:     8873 G-vectors     FFT dimensions: (  30,  30,  30)

     Dynamical RAM for                 wfc:       0.07 MB

     Dynamical RAM for     wfc (w. buffer):      21.33 MB

     Dynamical RAM for           str. fact:       0.03 MB

     Dynamical RAM for           local pot:       0.00 MB

     Dynamical RAM for          nlocal pot:       0.09 MB

     Dynamical RAM for                qrad:      13.76 MB

     Dynamical RAM for          rho,v,vnew:       1.13 MB

     Dynamical RAM for               rhoin:       0.38 MB

     Dynamical RAM for            rho*nmix:       2.08 MB

     Dynamical RAM for           G-vectors:       0.13 MB

     Dynamical RAM for          h,s,v(r/c):       0.12 MB

     Dynamical RAM for          <psi|beta>:       0.05 MB

     Dynamical RAM for                 psi:       0.15 MB

     Dynamical RAM for                hpsi:       0.15 MB

     Dynamical RAM for      wfcinit/wfcrot:       0.13 MB

     Estimated static dynamical RAM per process >      37.40 MB

     Estimated max dynamical RAM per process >      39.94 MB

     Estimated total dynamical RAM >     479.28 MB
     Generating pointlists ...
     new r_m :   0.2917 (alat units)  2.1635 (a.u.) for type    1

     Initial potential from superposition of free atoms

     starting charge      17.9998, renormalised to      18.0000

 ==============================================================================
     atom number    1 relative position :    0.0000   0.0000   0.0000
     charge :    16.289589  (integrated on a sphere of radius 0.292)
     magnetization :          0.000000    0.000000    1.628959
     magnetization/charge:    0.000000    0.000000    0.100000
     polar coord.: r, theta, phi [deg] :     1.628959    0.000000  360.000000

 ==============================================================================
     Starting wfcs are   20 randomized atomic wfcs +    6 random wfcs

     total cpu time spent up to now is        1.7 secs

     Self-consistent Calculation

     iteration #  1     ecut=    75.00 Ry     beta= 0.70
     Davidson diagonalization with overlap

---- Real-time Memory Report at c_bands before calling an iterative solver
           273 MiB given to the printing process from OS
             0 MiB allocation reported by mallinfo(arena+hblkhd)
         25975 MiB available memory on the node where the printing process lives
------------------
     ethr =  1.00E-02,  avg # of iterations =  5.3

     Threshold (ethr) on eigenvalues was too large:
     Diagonalizing with lowered threshold

     Davidson diagonalization with overlap

---- Real-time Memory Report at c_bands before calling an iterative solver
           274 MiB given to the printing process from OS
             0 MiB allocation reported by mallinfo(arena+hblkhd)
         25944 MiB available memory on the node where the printing process lives
------------------
     ethr =  5.24E-04,  avg # of iterations =  1.3

     total cpu time spent up to now is       11.6 secs

     total energy              =    -261.59782053 Ry
     estimated scf accuracy    <       0.09395143 Ry

     total magnetization       =    -0.00     0.00     0.64 Bohr mag/cell
     absolute magnetization    =     0.65 Bohr mag/cell

     iteration #  2     ecut=    75.00 Ry     beta= 0.70
     Davidson diagonalization with overlap

---- Real-time Memory Report at c_bands before calling an iterative solver
           276 MiB given to the printing process from OS
             0 MiB allocation reported by mallinfo(arena+hblkhd)
         25956 MiB available memory on the node where the printing process lives
------------------
     ethr =  5.22E-04,  avg # of iterations =  2.1

     total cpu time spent up to now is       16.0 secs

     total energy              =    -261.62112327 Ry
     estimated scf accuracy    <       0.02575086 Ry

     total magnetization       =     0.00     0.00     0.44 Bohr mag/cell
     absolute magnetization    =     0.46 Bohr mag/cell

     iteration #  3     ecut=    75.00 Ry     beta= 0.70
     Davidson diagonalization with overlap

---- Real-time Memory Report at c_bands before calling an iterative solver
           276 MiB given to the printing process from OS
             0 MiB allocation reported by mallinfo(arena+hblkhd)
         25976 MiB available memory on the node where the printing process lives
------------------
     ethr =  1.43E-04,  avg # of iterations =  2.4

     total cpu time spent up to now is       20.5 secs

     total energy              =    -261.62826102 Ry
     estimated scf accuracy    <       0.00186721 Ry

     total magnetization       =     0.00     0.00     0.35 Bohr mag/cell
     absolute magnetization    =     0.38 Bohr mag/cell

     iteration #  4     ecut=    75.00 Ry     beta= 0.70
     Davidson diagonalization with overlap

---- Real-time Memory Report at c_bands before calling an iterative solver
           276 MiB given to the printing process from OS
             0 MiB allocation reported by mallinfo(arena+hblkhd)
         25994 MiB available memory on the node where the printing process lives
------------------
     ethr =  1.04E-05,  avg # of iterations =  2.7

     total cpu time spent up to now is       24.7 secs

     total energy              =    -261.62905157 Ry
     estimated scf accuracy    <       0.00019344 Ry

     total magnetization       =     0.00    -0.00     0.18 Bohr mag/cell
     absolute magnetization    =     0.21 Bohr mag/cell

     iteration #  5     ecut=    75.00 Ry     beta= 0.70
     Davidson diagonalization with overlap

---- Real-time Memory Report at c_bands before calling an iterative solver
           276 MiB given to the printing process from OS
             0 MiB allocation reported by mallinfo(arena+hblkhd)
         26028 MiB available memory on the node where the printing process lives
------------------
     ethr =  1.07E-06,  avg # of iterations =  2.6

     total cpu time spent up to now is       29.7 secs

     total energy              =    -261.62982247 Ry
     estimated scf accuracy    <       0.00001483 Ry

     total magnetization       =    -0.00     0.00     0.03 Bohr mag/cell
     absolute magnetization    =     0.03 Bohr mag/cell

     iteration #  6     ecut=    75.00 Ry     beta= 0.70
     Davidson diagonalization with overlap

---- Real-time Memory Report at c_bands before calling an iterative solver
           276 MiB given to the printing process from OS
             0 MiB allocation reported by mallinfo(arena+hblkhd)
         26052 MiB available memory on the node where the printing process lives
------------------
     ethr =  8.24E-08,  avg # of iterations =  2.0

     total cpu time spent up to now is       34.5 secs

     total energy              =    -261.62981994 Ry
     estimated scf accuracy    <       0.00000564 Ry

     total magnetization       =    -0.00     0.00     0.02 Bohr mag/cell
     absolute magnetization    =     0.03 Bohr mag/cell

     iteration #  7     ecut=    75.00 Ry     beta= 0.70
     Davidson diagonalization with overlap

---- Real-time Memory Report at c_bands before calling an iterative solver
           276 MiB given to the printing process from OS
             0 MiB allocation reported by mallinfo(arena+hblkhd)
         26061 MiB available memory on the node where the printing process lives
------------------
     ethr =  3.13E-08,  avg # of iterations =  2.0

     total cpu time spent up to now is       39.2 secs

     total energy              =    -261.62984151 Ry
     estimated scf accuracy    <       0.00000002 Ry

     total magnetization       =     0.00     0.00     0.00 Bohr mag/cell
     absolute magnetization    =     0.00 Bohr mag/cell

     iteration #  8     ecut=    75.00 Ry     beta= 0.70
     Davidson diagonalization with overlap

---- Real-time Memory Report at c_bands before calling an iterative solver
           276 MiB given to the printing process from OS
             0 MiB allocation reported by mallinfo(arena+hblkhd)
         26058 MiB available memory on the node where the printing process lives
------------------
     ethr =  1.04E-10,  avg # of iterations =  3.1

 ==============================================================================
     atom number    1 relative position :    0.0000   0.0000   0.0000
     charge :    16.060138  (integrated on a sphere of radius 0.292)
     magnetization :          0.000000   -0.000000    0.000537
     magnetization/charge:    0.000000   -0.000000    0.000033
     polar coord.: r, theta, phi [deg] :     0.000537    0.000000  360.000000

 ==============================================================================

     total cpu time spent up to now is       44.5 secs

     End of self-consistent calculation

          k = 0.0000 0.0000 0.0000 (  1139 PWs)   bands (ev):

   -74.8265 -74.8260 -39.9788 -39.9787 -24.8699 -24.8697 -24.8695 -24.8693
    13.3226  13.3229  19.2903  19.2904  19.2906  19.2907  20.2719  20.2721
    22.0897  22.0898  22.0900  22.0901  38.1306  38.1312  42.5000  42.5001
    43.2226  43.2226

     occupation numbers 
     1.0000   1.0000   1.0000   1.0000   1.0000   1.0000   1.0000   1.0000
     1.0000   1.0000   1.0000   1.0000   1.0000   1.0000   1.0000   1.0000
     1.0000   1.0000   1.0000   1.0000   0.0000   0.0000   0.0000   0.0000
     0.0000   0.0000

          k =-0.0667 0.0667-0.0667 (  1109 PWs)   bands (ev):

   -74.8251 -74.8245 -39.9831 -39.9829 -24.8890 -24.8886 -24.8733 -24.8729
    13.5009  13.5012  19.2747  19.2750  19.3332  19.3334  20.3009  20.3011
    22.0230  22.0232  22.0827  22.0829  38.4067  38.4073  41.9774  41.9776
    43.1084  43.1085

     occupation numbers 
     1.0000   1.0000   1.0000   1.0000   1.0000   1.0000   1.0000   1.0000
     1.0000   1.0000   1.0000   1.0000   1.0000   1.0000   1.0000   1.0000
     1.0000   1.0000   1.0000   1.0000   0.0000   0.0000   0.0000   0.0000
     0.0000   0.0000

          k =-0.1333 0.1333-0.1333 (  1131 PWs)   bands (ev):

   -74.8211 -74.8205 -39.9960 -39.9958 -24.9444 -24.9440 -24.8843 -24.8839
    14.0108  14.0111  19.1994  19.1998  19.4273  19.4275  20.4357  20.4360
    21.8648  21.8649  22.1049  22.1052  39.1164  39.1170  40.2835  40.2839
    43.7777  43.7778

     occupation numbers 
     1.0000   1.0000   1.0000   1.0000   1.0000   1.0000   1.0000   1.0000
     1.0000   1.0000   1.0000   1.0000   1.0000   1.0000   1.0000   1.0000
     1.0000   1.0000   1.0000   1.0000   0.0000   0.0000   0.0000   0.0000
     0.0000   0.0000

          k =-0.2000 0.2000-0.2000 (  1122 PWs)   bands (ev):

   -74.8151 -74.8145 -40.0146 -40.0145 -25.0244 -25.0241 -24.9002 -24.8998
    14.7602  14.7605  19.1244  19.1247  19.4867  19.4869  20.6294  20.6296
    21.7746  21.7748  22.2601  22.2604  38.2997  38.2999  39.8231  39.8236
    44.7391  44.7392

     occupation numbers 
     1.0000   1.0000   1.0000   1.0000   1.0000   1.0000   1.0000   1.0000
     1.0000   1.0000   1.0000   1.0000   1.0000   1.0000   1.0000   1.0000
     1.0000   1.0000   1.0000   1.0000   0.0000   0.0000   0.0000   0.0000
     0.0000   0.0000

          k =-0.2667 0.2667-0.2667 (  1113 PWs)   bands (ev):

   -74.8082 -74.8077 -40.0361 -40.0359 -25.1152 -25.1149 -24.9183 -24.9179
    15.5306  15.5308  19.3113  19.3115  19.4469  19.4472  20.6247  20.6250
    22.0214  22.0217  22.6156  22.6159  36.1273  36.1274  39.6909  39.6914
    45.1140  45.1141

     occupation numbers 
     1.0000   1.0000   1.0000   1.0000   1.0000   1.0000   1.0000   1.0000
     1.0000   1.0000   1.0000   1.0000   1.0000   1.0000   1.0000   1.0000
     1.0000   1.0000   1.0000   1.0000   0.0000   0.0000   0.0000   0.0000
     0.0000   0.0000

          k =-0.3333 0.3333-0.3333 (  1131 PWs)   bands (ev):

   -74.8017 -74.8011 -40.0568 -40.0567 -25.2012 -25.2008 -24.9357 -24.9354
    16.0107  16.0107  19.3318  19.3320  20.0757  20.0757  20.4508  20.4510
    22.5382  22.5385  23.1127  23.1131  33.7446  33.7447  38.8617  38.8622
    43.9843  43.9844

     occupation numbers 
     1.0000   1.0000   1.0000   1.0000   1.0000   1.0000   1.0000   1.0000
     1.0000   1.0000   1.0000   1.0000   1.0000   1.0000   1.0000   1.0000
     1.0000   1.0000   1.0000   1.0000   0.0000   0.0000   0.0000   0.0000
     0.0000   0.0000

          k =-0.4000 0.4000-0.4000 (  1125 PWs)   bands (ev):

   -74.7965 -74.7960 -40.0729 -40.0727 -25.2673 -25.2670 -24.9491 -24.9488
    16.1574  16.1575  19.2098  19.2101  20.2445  20.2447  21.4058  21.4060
    23.0448  23.0452  23.5988  23.5992  31.4024  31.4026  38.1198  38.1203
    42.5924  42.5925

     occupation numbers 
     1.0000   1.0000   1.0000   1.0000   1.0000   1.0000   1.0000   1.0000
     1.0000   1.0000   1.0000   1.0000   1.0000   1.0000   1.0000   1.0000
     1.0000   1.0000   0.5535   0.5517   0.0000   0.0000   0.0000   0.0000
     0.0000   0.0000

          k =-0.4667 0.4667-0.4667 (  1119 PWs)   bands (ev):

   -74.7937 -74.7932 -40.0816 -40.0815 -25.3033 -25.3029 -24.9563 -24.9559
    16.1708  16.1709  19.1356  19.1358  20.1410  20.1412  22.6596  22.6600
    23.2965  23.2969  23.9016  23.9020  29.7062  29.7066  37.7298  37.7303
    41.7881  41.7882

     occupation numbers 
     1.0000   1.0000   1.0000   1.0000   1.0000   1.0000   1.0000   1.0000
     1.0000   1.0000   1.0000   1.0000   1.0000   1.0000   1.0000   1.0000
     0.9995   0.9995   0.0013   0.0013   0.0000   0.0000   0.0000   0.0000
     0.0000   0.0000

          k = 0.0000 0.1333 0.0000 (  1107 PWs)   bands (ev):

   -74.8246 -74.8240 -39.9846 -39.9844 -24.8906 -24.8901 -24.8793 -24.8793
    13.5606  13.5609  19.2236  19.2239  19.3887  19.3887  20.3174  20.3176
    21.9349  21.9353  22.1443  22.1445  38.5041  38.5047  42.2003  42.2005
    42.8770  42.8771

     occupation numbers 
     1.0000   1.0000   1.0000   1.0000   1.0000   1.0000   1.0000   1.0000
     1.0000   1.0000   1.0000   1.0000   1.0000   1.0000   1.0000   1.0000
     1.0000   1.0000   1.0000   1.0000   0.0000   0.0000   0.0000   0.0000
     0.0000   0.0000

          k =-0.0667 0.2000-0.0667 (  1124 PWs)   bands (ev):

   -74.8214 -74.8209 -39.9947 -39.9945 -24.9326 -24.9322 -24.8894 -24.8892
    13.9620  13.9623  19.1219  19.1223  19.4967  19.4968  20.4367  20.4369
    21.7644  21.7647  22.1952  22.1955  39.0920  39.0926  40.9743  40.9747
    43.1190  43.1192

     occupation numbers 
     1.0000   1.0000   1.0000   1.0000   1.0000   1.0000   1.0000   1.0000
     1.0000   1.0000   1.0000   1.0000   1.0000   1.0000   1.0000   1.0000
     1.0000   1.0000   1.0000   1.0000   0.0000   0.0000   0.0000   0.0000
     0.0000   0.0000

          k =-0.1333 0.2667-0.1333 (  1122 PWs)   bands (ev):

   -74.8161 -74.8156 -40.0113 -40.0112 -25.0038 -25.0034 -24.9042 -24.9039
    14.6426  14.6429  18.9954  18.9958  19.5749  19.5751  20.6477  20.6480
    21.6369  21.6371  22.3231  22.3234  39.0959  39.0961  39.8836  39.8841
    43.6311  43.6313

     occupation numbers 
     1.0000   1.0000   1.0000   1.0000   1.0000   1.0000   1.0000   1.0000
     1.0000   1.0000   1.0000   1.0000   1.0000   1.0000   1.0000   1.0000
     1.0000   1.0000   1.0000   1.0000   0.0000   0.0000   0.0000   0.0000
     0.0000   0.0000

          k =-0.2000 0.3333-0.2000 (  1119 PWs)   bands (ev):

   -74.8096 -74.8090 -40.0319 -40.0318 -25.0901 -25.0898 -24.9225 -24.9221
    15.4390  15.4393  19.0109  19.0112  19.5505  19.5508  20.7051  20.7053
    21.8310  21.8314  22.6381  22.6384  36.9919  36.9921  40.0583  40.0588
    43.9123  43.9124

     occupation numbers 
     1.0000   1.0000   1.0000   1.0000   1.0000   1.0000   1.0000   1.0000
     1.0000   1.0000   1.0000   1.0000   1.0000   1.0000   1.0000   1.0000
     1.0000   1.0000   1.0000   1.0000   0.0000   0.0000   0.0000   0.0000
     0.0000   0.0000

          k =-0.2667 0.4000-0.2667 (  1114 PWs)   bands (ev):

   -74.8029 -74.8023 -40.0527 -40.0526 -25.1765 -25.1762 -24.9409 -24.9406
    16.0430  16.0431  19.3322  19.3323  19.5778  19.5779  20.5382  20.5384
    22.4058  22.4062  23.1214  23.1219  34.6198  34.6198  39.3489  39.3494
    43.4041  43.4042

     occupation numbers 
     1.0000   1.0000   1.0000   1.0000   1.0000   1.0000   1.0000   1.0000
     1.0000   1.0000   1.0000   1.0000   1.0000   1.0000   1.0000   1.0000
     1.0000   1.0000   1.0000   1.0000   0.0000   0.0000   0.0000   0.0000
     0.0000   0.0000

          k =-0.3333 0.4667-0.3333 (  1122 PWs)   bands (ev):

   -74.7973 -74.7967 -40.0704 -40.0702 -25.2485 -25.2482 -24.9565 -24.9561
    16.2765  16.2766  19.2436  19.2438  20.2601  20.2604  20.6136  20.6136
    23.0871  23.0874  23.6773  23.6778  32.1724  32.1725  38.5520  38.5525
    42.3735  42.3736

     occupation numbers 
     1.0000   1.0000   1.0000   1.0000   1.0000   1.0000   1.0000   1.0000
     1.0000   1.0000   1.0000   1.0000   1.0000   1.0000   1.0000   1.0000
     1.0000   1.0000   0.2475   0.2461   0.0000   0.0000   0.0000   0.0000
     0.0000   0.0000

          k =-0.4000 0.5333-0.4000 (  1128 PWs)   bands (ev):

   -74.7937 -74.7932 -40.0817 -40.0815 -25.2940 -25.2936 -24.9665 -24.9662
    16.3109  16.3111  19.1445  19.1447  20.1636  20.1638  21.6305  21.6306
    23.5290  23.5296  24.3277  24.3281  30.1123  30.1127  38.0598  38.0603
    41.6081  41.6082

     occupation numbers 
     1.0000   1.0000   1.0000   1.0000   1.0000   1.0000   1.0000   1.0000
     1.0000   1.0000   1.0000   1.0000   1.0000   1.0000   1.0000   1.0000
     0.8050   0.8034   0.0000   0.0000   0.0000   0.0000   0.0000   0.0000
     0.0000   0.0000

          k = 0.5333-0.4000 0.5333 (  1124 PWs)   bands (ev):

   -74.7927 -74.7922 -40.0846 -40.0844 -25.3057 -25.3054 -24.9691 -24.9687
    16.3109  16.3110  19.1191  19.1193  20.1268  20.1270  22.0171  22.0172
    23.5181  23.5187  24.6920  24.6923  29.4213  29.4217  37.9356  37.9361
    41.3386  41.3387

     occupation numbers 
     1.0000   1.0000   1.0000   1.0000   1.0000   1.0000   1.0000   1.0000
     1.0000   1.0000   1.0000   1.0000   1.0000   1.0000   1.0000   1.0000
     0.8348   0.8332   0.0000   0.0000   0.0000   0.0000   0.0000   0.0000
     0.0000   0.0000

          k = 0.4667-0.3333 0.4667 (  1124 PWs)   bands (ev):

   -74.7946 -74.7941 -40.0787 -40.0786 -25.2821 -25.2818 -24.9639 -24.9635
    16.3134  16.3135  19.1747  19.1749  20.1966  20.1968  21.3889  21.3890
    23.1609  23.1615  24.2795  24.2799  30.7317  30.7319  38.1810  38.1816
    41.6258  41.6260

     occupation numbers 
     1.0000   1.0000   1.0000   1.0000   1.0000   1.0000   1.0000   1.0000
     1.0000   1.0000   1.0000   1.0000   1.0000   1.0000   1.0000   1.0000
     1.0000   1.0000   0.0000   0.0000   0.0000   0.0000   0.0000   0.0000
     0.0000   0.0000

          k = 0.4000-0.2667 0.4000 (  1124 PWs)   bands (ev):

   -74.7990 -74.7985 -40.0651 -40.0649 -25.2269 -25.2265 -24.9517 -24.9513
    16.2399  16.2400  19.2863  19.2866  20.1996  20.1997  20.4117  20.4119
    22.6080  22.6085  23.6762  23.6768  32.9903  32.9904  38.7790  38.7794
    42.4465  42.4466

     occupation numbers 
     1.0000   1.0000   1.0000   1.0000   1.0000   1.0000   1.0000   1.0000
     1.0000   1.0000   1.0000   1.0000   1.0000   1.0000   1.0000   1.0000
     1.0000   1.0000   0.2511   0.2494   0.0000   0.0000   0.0000   0.0000
     0.0000   0.0000

          k = 0.3333-0.2000 0.3333 (  1115 PWs)   bands (ev):

   -74.8051 -74.8045 -40.0459 -40.0458 -25.1487 -25.1484 -24.9345 -24.9341
    15.8885  15.8887  19.2496  19.2498  19.5226  19.5227  20.5958  20.5960
    22.0232  22.0236  23.0706  23.0711  35.4333  35.4334  39.6009  39.6014
    43.4683  43.4684

     occupation numbers 
     1.0000   1.0000   1.0000   1.0000   1.0000   1.0000   1.0000   1.0000
     1.0000   1.0000   1.0000   1.0000   1.0000   1.0000   1.0000   1.0000
     1.0000   1.0000   1.0000   1.0000   0.0000   0.0000   0.0000   0.0000
     0.0000   0.0000

          k = 0.2667-0.1333 0.2667 (  1120 PWs)   bands (ev):

   -74.8118 -74.8113 -40.0248 -40.0246 -25.0612 -25.0608 -24.9152 -24.9148
    15.1787  15.1790  19.0082  19.0085  19.5539  19.5541  20.7130  20.7133
    21.6433  21.6436  22.5659  22.5664  37.6928  37.6929  40.0697  40.0701
    43.7759  43.7761

     occupation numbers 
     1.0000   1.0000   1.0000   1.0000   1.0000   1.0000   1.0000   1.0000
     1.0000   1.0000   1.0000   1.0000   1.0000   1.0000   1.0000   1.0000
     1.0000   1.0000   1.0000   1.0000   0.0000   0.0000   0.0000   0.0000
     0.0000   0.0000

          k = 0.2000-0.0667 0.2000 (  1123 PWs)   bands (ev):

   -74.8181 -74.8176 -40.0051 -40.0050 -24.9793 -24.9789 -24.8967 -24.8963
    14.3904  14.3908  19.0742  19.0745  19.5237  19.5239  20.5623  20.5627
    21.6741  21.6743  22.2612  22.2616  39.5314  39.5318  39.7172  39.7176
    43.2575  43.2577

     occupation numbers 
     1.0000   1.0000   1.0000   1.0000   1.0000   1.0000   1.0000   1.0000
     1.0000   1.0000   1.0000   1.0000   1.0000   1.0000   1.0000   1.0000
     1.0000   1.0000   1.0000   1.0000   0.0000   0.0000   0.0000   0.0000
     0.0000   0.0000

          k = 0.1333 0.0000 0.1333 (  1117 PWs)   bands (ev):

[...]
    39.5437  39.5440

     occupation numbers 
     1.0000   1.0000   1.0000   1.0000   1.0000   1.0000   1.0000   1.0000
     1.0000   1.0000   1.0000   1.0000   1.0000   1.0000   1.0000   1.0000
     1.0000   1.0000   0.0000   0.0000   0.0000   0.0000   0.0000   0.0000
     0.0000   0.0000

          k = 0.6667 0.4000 0.0000 (  1120 PWs)   bands (ev):

   -74.7896 -74.7890 -40.0936 -40.0935 -25.2565 -25.2562 -25.0695 -25.0693
    18.0644  18.0644  18.3898  18.3900  18.7703  18.7705  21.7120  21.7123
    22.6000  22.6007  26.1290  26.1293  33.5140  33.5141  35.5038  35.5038
    39.5437  39.5440

     occupation numbers 
     1.0000   1.0000   1.0000   1.0000   1.0000   1.0000   1.0000   1.0000
     1.0000   1.0000   1.0000   1.0000   1.0000   1.0000   1.0000   1.0000
     1.0000   1.0000   0.0000   0.0000   0.0000   0.0000   0.0000   0.0000
     0.0000   0.0000

          k =-0.2000 1.0000 0.7333 (  1115 PWs)   bands (ev):

   -74.7859 -74.7853 -40.1047 -40.1046 -25.2821 -25.2816 -25.0990 -25.0989
    17.2637  17.2638  17.6027  17.6030  20.2714  20.2716  22.6397  22.6400
    23.4343  23.4350  26.4514  26.4517  32.9659  32.9660  35.1373  35.1374
    37.2340  37.2341

     occupation numbers 
     1.0000   1.0000   1.0000   1.0000   1.0000   1.0000   1.0000   1.0000
     1.0000   1.0000   1.0000   1.0000   1.0000   1.0000   1.0000   1.0000
     0.9674   0.9669   0.0000   0.0000   0.0000   0.0000   0.0000   0.0000
     0.0000   0.0000

          k = 1.0000 0.7333-0.2000 (  1115 PWs)   bands (ev):

   -74.7859 -74.7853 -40.1047 -40.1046 -25.2819 -25.2818 -25.0992 -25.0986
    17.2637  17.2638  17.6027  17.6030  20.2714  20.2716  22.6397  22.6400
    23.4343  23.4350  26.4514  26.4517  32.9659  32.9660  35.1373  35.1374
    37.2340  37.2341

     occupation numbers 
     1.0000   1.0000   1.0000   1.0000   1.0000   1.0000   1.0000   1.0000
     1.0000   1.0000   1.0000   1.0000   1.0000   1.0000   1.0000   1.0000
     0.9674   0.9669   0.0000   0.0000   0.0000   0.0000   0.0000   0.0000
     0.0000   0.0000

          k =-0.1333 0.9333 0.6667 (  1118 PWs)   bands (ev):

   -74.7839 -74.7833 -40.1108 -40.1107 -25.2886 -25.2881 -25.1241 -25.1239
    17.4347  17.4348  17.8781  17.8784  20.0224  20.0226  22.2539  22.2542
    23.7439  23.7446  28.0890  28.0891  31.5256  31.5256  34.4095  34.4096
    36.6128  36.6129

     occupation numbers 
     1.0000   1.0000   1.0000   1.0000   1.0000   1.0000   1.0000   1.0000
     1.0000   1.0000   1.0000   1.0000   1.0000   1.0000   1.0000   1.0000
     0.0847   0.0836   0.0000   0.0000   0.0000   0.0000   0.0000   0.0000
     0.0000   0.0000

          k = 0.9333 0.6667-0.1333 (  1118 PWs)   bands (ev):

   -74.7839 -74.7833 -40.1108 -40.1107 -25.2884 -25.2882 -25.1243 -25.1237
    17.4347  17.4348  17.8781  17.8784  20.0224  20.0227  22.2539  22.2542
    23.7439  23.7446  28.0890  28.0892  31.5256  31.5256  34.4095  34.4096
    36.6128  36.6129

     occupation numbers 
     1.0000   1.0000   1.0000   1.0000   1.0000   1.0000   1.0000   1.0000
     1.0000   1.0000   1.0000   1.0000   1.0000   1.0000   1.0000   1.0000
     0.0848   0.0835   0.0000   0.0000   0.0000   0.0000   0.0000   0.0000
     0.0000   0.0000

          k =-0.0667 0.8667 0.6000 (  1120 PWs)   bands (ev):

   -74.7833 -74.7827 -40.1127 -40.1125 -25.2854 -25.2848 -25.1371 -25.1369
    17.6523  17.6525  18.2400  18.2402  19.6603  19.6605  21.8486  21.8488
    23.7238  23.7245  29.5060  29.5062  30.4666  30.4667  33.7366  33.7367
    36.8863  36.8865

     occupation numbers 
     1.0000   1.0000   1.0000   1.0000   1.0000   1.0000   1.0000   1.0000
     1.0000   1.0000   1.0000   1.0000   1.0000   1.0000   1.0000   1.0000
     0.1220   0.1205   0.0000   0.0000   0.0000   0.0000   0.0000   0.0000
     0.0000   0.0000

          k = 0.8667 0.6000-0.0667 (  1120 PWs)   bands (ev):

   -74.7833 -74.7827 -40.1127 -40.1125 -25.2851 -25.2850 -25.1373 -25.1368
    17.6523  17.6525  18.2400  18.2402  19.6602  19.6605  21.8486  21.8489
    23.7237  23.7245  29.5061  29.5062  30.4666  30.4667  33.7366  33.7367
    36.8863  36.8865

     occupation numbers 
     1.0000   1.0000   1.0000   1.0000   1.0000   1.0000   1.0000   1.0000
     1.0000   1.0000   1.0000   1.0000   1.0000   1.0000   1.0000   1.0000
     0.1221   0.1205   0.0000   0.0000   0.0000   0.0000   0.0000   0.0000
     0.0000   0.0000

          k = 0.0000 0.8000 0.5333 (  1118 PWs)   bands (ev):

   -74.7842 -74.7837 -40.1099 -40.1097 -25.2801 -25.2796 -25.1286 -25.1283
    17.9487  17.9489  18.4951  18.4953  19.1683  19.1685  21.6710  21.6713
    23.4267  23.4274  28.4342  28.4344  32.1685  32.1685  33.0581  33.0582
    37.8108  37.8109

     occupation numbers 
     1.0000   1.0000   1.0000   1.0000   1.0000   1.0000   1.0000   1.0000
     1.0000   1.0000   1.0000   1.0000   1.0000   1.0000   1.0000   1.0000
     0.9728   0.9723   0.0000   0.0000   0.0000   0.0000   0.0000   0.0000
     0.0000   0.0000

          k = 0.8000 0.5333 0.0000 (  1118 PWs)   bands (ev):

   -74.7842 -74.7837 -40.1099 -40.1097 -25.2799 -25.2798 -25.1286 -25.1282
    17.9487  17.9489  18.4951  18.4953  19.1682  19.1686  21.6710  21.6713
    23.4267  23.4274  28.4343  28.4344  32.1685  32.1686  33.0581  33.0582
    37.8108  37.8109

     occupation numbers 
     1.0000   1.0000   1.0000   1.0000   1.0000   1.0000   1.0000   1.0000
     1.0000   1.0000   1.0000   1.0000   1.0000   1.0000   1.0000   1.0000
     0.9728   0.9723   0.0000   0.0000   0.0000   0.0000   0.0000   0.0000
     0.0000   0.0000

          k =-0.0667 1.0000 0.7333 (  1124 PWs)   bands (ev):

   -74.7828 -74.7822 -40.1143 -40.1141 -25.3039 -25.3034 -25.1248 -25.1247
    17.0735  17.0736  17.4539  17.4542  20.9667  20.9670  22.6482  22.6484
    24.0425  24.0432  28.0275  28.0275  31.5567  31.5567  34.0587  34.0588
    35.8097  35.8098

     occupation numbers 
     1.0000   1.0000   1.0000   1.0000   1.0000   1.0000   1.0000   1.0000
     1.0000   1.0000   1.0000   1.0000   1.0000   1.0000   1.0000   1.0000
     0.0000   0.0000   0.0000   0.0000   0.0000   0.0000   0.0000   0.0000
     0.0000   0.0000

          k = 1.0000 0.7333-0.0667 (  1124 PWs)   bands (ev):

   -74.7828 -74.7822 -40.1143 -40.1141 -25.3037 -25.3036 -25.1251 -25.1244
    17.0735  17.0736  17.4539  17.4542  20.9667  20.9670  22.6481  22.6485
    24.0424  24.0432  28.0274  28.0275  31.5567  31.5567  34.0587  34.0588
    35.8096  35.8098

     occupation numbers 
     1.0000   1.0000   1.0000   1.0000   1.0000   1.0000   1.0000   1.0000
     1.0000   1.0000   1.0000   1.0000   1.0000   1.0000   1.0000   1.0000
     0.0000   0.0000   0.0000   0.0000   0.0000   0.0000   0.0000   0.0000
     0.0000   0.0000

          k = 0.0000 0.9333 0.6667 (  1120 PWs)   bands (ev):

   -74.7825 -74.7819 -40.1151 -40.1150 -25.2946 -25.2940 -25.1396 -25.1395
    17.3331  17.3332  17.8073  17.8076  20.3663  20.3665  22.2100  22.2102
    24.0159  24.0167  29.4264  29.4264  30.7046  30.7046  33.5158  33.5159
    35.9613  35.9614

     occupation numbers 
     1.0000   1.0000   1.0000   1.0000   1.0000   1.0000   1.0000   1.0000
     1.0000   1.0000   1.0000   1.0000   1.0000   1.0000   1.0000   1.0000
     0.0000   0.0000   0.0000   0.0000   0.0000   0.0000   0.0000   0.0000
     0.0000   0.0000

          k = 0.9333 0.6667 0.0000 (  1120 PWs)   bands (ev):

   -74.7825 -74.7819 -40.1151 -40.1150 -25.2944 -25.2942 -25.1399 -25.1392
    17.3331  17.3332  17.8073  17.8076  20.3662  20.3665  22.2100  22.2103
    24.0159  24.0167  29.4263  29.4264  30.7046  30.7046  33.5158  33.5159
    35.9613  35.9614

     occupation numbers 
     1.0000   1.0000   1.0000   1.0000   1.0000   1.0000   1.0000   1.0000
     1.0000   1.0000   1.0000   1.0000   1.0000   1.0000   1.0000   1.0000
     0.0000   0.0000   0.0000   0.0000   0.0000   0.0000   0.0000   0.0000
     0.0000   0.0000

          k =-0.2000 1.0000 0.6000 (  1123 PWs)   bands (ev):

   -74.7851 -74.7846 -40.1072 -40.1071 -25.2773 -25.2768 -25.1175 -25.1173
    17.8797  17.8798  18.2459  18.2462  19.1689  19.1692  21.9937  21.9939
    23.4072  23.4079  27.6397  27.6399  32.5200  32.5200  34.0114  34.0115
    37.4580  37.4582

     occupation numbers 
     1.0000   1.0000   1.0000   1.0000   1.0000   1.0000   1.0000   1.0000
     1.0000   1.0000   1.0000   1.0000   1.0000   1.0000   1.0000   1.0000
     0.9832   0.9829   0.0000   0.0000   0.0000   0.0000   0.0000   0.0000
     0.0000   0.0000

          k = 1.0000 0.6000-0.2000 (  1123 PWs)   bands (ev):

   -74.7851 -74.7846 -40.1072 -40.1071 -25.2772 -25.2769 -25.1177 -25.1171
    17.8797  17.8798  18.2459  18.2462  19.1689  19.1692  21.9936  21.9940
    23.4071  23.4079  27.6397  27.6399  32.5200  32.5200  34.0114  34.0115
    37.4580  37.4582

     occupation numbers 
     1.0000   1.0000   1.0000   1.0000   1.0000   1.0000   1.0000   1.0000
     1.0000   1.0000   1.0000   1.0000   1.0000   1.0000   1.0000   1.0000
     0.9833   0.9829   0.0000   0.0000   0.0000   0.0000   0.0000   0.0000
     0.0000   0.0000

          k =-0.1333 0.9333 0.5333 (  1120 PWs)   bands (ev):

   -74.7836 -74.7830 -40.1118 -40.1116 -25.2796 -25.2791 -25.1387 -25.1385
    17.9200  17.9201  18.5052  18.5054  19.0808  19.0811  21.7175  21.7177
    23.7039  23.7046  29.0672  29.0673  31.1793  31.1793  33.7360  33.7361
    36.7162  36.7163

     occupation numbers 
     1.0000   1.0000   1.0000   1.0000   1.0000   1.0000   1.0000   1.0000
     1.0000   1.0000   1.0000   1.0000   1.0000   1.0000   1.0000   1.0000
     0.1690   0.1671   0.0000   0.0000   0.0000   0.0000   0.0000   0.0000
     0.0000   0.0000

          k = 0.9333 0.5333-0.1333 (  1120 PWs)   bands (ev):

   -74.7836 -74.7830 -40.1118 -40.1116 -25.2794 -25.2792 -25.1389 -25.1384
    17.9200  17.9201  18.5052  18.5054  19.0808  19.0811  21.7175  21.7178
    23.7038  23.7046  29.0672  29.0673  31.1793  31.1794  33.7360  33.7361
    36.7162  36.7163

     occupation numbers 
     1.0000   1.0000   1.0000   1.0000   1.0000   1.0000   1.0000   1.0000
     1.0000   1.0000   1.0000   1.0000   1.0000   1.0000   1.0000   1.0000
     0.1691   0.1670   0.0000   0.0000   0.0000   0.0000   0.0000   0.0000
     0.0000   0.0000

          k =-0.0667 1.0000 0.6000 (  1122 PWs)   bands (ev):

   -74.7827 -74.7821 -40.1146 -40.1144 -25.2836 -25.2830 -25.1486 -25.1484
    17.6309  17.6310  18.1596  18.1599  19.6653  19.6655  21.9119  21.9120
    23.9996  24.0003  29.4821  29.4822  31.3645  31.3645  33.1076  33.1077
    35.8507  35.8508

     occupation numbers 
     1.0000   1.0000   1.0000   1.0000   1.0000   1.0000   1.0000   1.0000
     1.0000   1.0000   1.0000   1.0000   1.0000   1.0000   1.0000   1.0000
     0.0000   0.0000   0.0000   0.0000   0.0000   0.0000   0.0000   0.0000
     0.0000   0.0000

          k = 1.0000 0.6000-0.0667 (  1122 PWs)   bands (ev):

   -74.7827 -74.7821 -40.1146 -40.1144 -25.2833 -25.2832 -25.1488 -25.1482
    17.6309  17.6310  18.1596  18.1599  19.6652  19.6656  21.9118  21.9121
    23.9995  24.0003  29.4821  29.4822  31.3645  31.3646  33.1076  33.1077
    35.8507  35.8508

     occupation numbers 
     1.0000   1.0000   1.0000   1.0000   1.0000   1.0000   1.0000   1.0000
     1.0000   1.0000   1.0000   1.0000   1.0000   1.0000   1.0000   1.0000
     0.0000   0.0000   0.0000   0.0000   0.0000   0.0000   0.0000   0.0000
     0.0000   0.0000

          k =-0.0000 0.9333 0.5333 (  1123 PWs)   bands (ev):

   -74.7826 -74.7820 -40.1149 -40.1147 -25.2779 -25.2773 -25.1563 -25.1561
    17.7873  17.7875  18.5720  18.5722  19.1763  19.1765  21.6754  21.6755
    23.9927  23.9934  30.1152  30.1153  31.1910  31.1910  32.6457  32.6458
    35.9072  35.9073

     occupation numbers 
     1.0000   1.0000   1.0000   1.0000   1.0000   1.0000   1.0000   1.0000
     1.0000   1.0000   1.0000   1.0000   1.0000   1.0000   1.0000   1.0000
     0.0000   0.0000   0.0000   0.0000   0.0000   0.0000   0.0000   0.0000
     0.0000   0.0000

          k = 0.9333 0.5333-0.0000 (  1123 PWs)   bands (ev):

   -74.7826 -74.7820 -40.1149 -40.1147 -25.2776 -25.2776 -25.1565 -25.1560
    17.7873  17.7875  18.5720  18.5722  19.1762  19.1765  21.6753  21.6756
    23.9926  23.9934  30.1152  30.1153  31.1910  31.1910  32.6457  32.6457
    35.9072  35.9073

     occupation numbers 
     1.0000   1.0000   1.0000   1.0000   1.0000   1.0000   1.0000   1.0000
     1.0000   1.0000   1.0000   1.0000   1.0000   1.0000   1.0000   1.0000
     0.0000   0.0000   0.0000   0.0000   0.0000   0.0000   0.0000   0.0000
     0.0000   0.0000

     the Fermi energy is    23.6117 ev

!    total energy              =    -261.62984154 Ry
     estimated scf accuracy    <          2.8E-09 Ry
     smearing contrib. (-TS)   =      -0.00092551 Ry
     internal energy E=F+TS    =    -261.62891603 Ry

     The total energy is F=E-TS. E is the sum of the following terms:
     one-electron contribution =     -51.74321020 Ry
     hartree contribution      =      38.10671314 Ry
     xc contribution           =     -47.71464418 Ry
     ewald contribution        =    -200.27777478 Ry

     total magnetization       =     0.00    -0.00     0.00 Bohr mag/cell
     absolute magnetization    =     0.00 Bohr mag/cell

     convergence has been achieved in   8 iterations

     Forces acting on atoms (cartesian axes, Ry/au):

     atom    1 type  1   force =     0.00000000    0.00000000    0.00000000
     The non-local contrib.  to forces
     atom    1 type  1   force =     0.00000000    0.00000000   -0.00000000
     The ionic contribution  to forces
     atom    1 type  1   force =    -0.00000000   -0.00000000   -0.00000000
     The local contribution  to forces
     atom    1 type  1   force =    -0.00000000    0.00000000    0.00000000
     The core correction contribution to forces
     atom    1 type  1   force =    -0.00000000    0.00000000   -0.00000000
     The Hubbard contrib.    to forces
     atom    1 type  1   force =     0.00000000    0.00000000    0.00000000
     The SCF correction term to forces
     atom    1 type  1   force =    -0.00000000   -0.00000000    0.00000000

     Total force =     0.000000     Total SCF correction =     0.000000


     Computing stress (Cartesian axis) and pressure

          total   stress  (Ry/bohr**3)                   (kbar)     P=       88.78
   0.00060357   0.00000000   0.00000000           88.79        0.00        0.00
   0.00000000   0.00060357  -0.00000000            0.00       88.79       -0.00
   0.00000000  -0.00000000   0.00060346            0.00       -0.00       88.77

     kinetic stress (kbar)  71987.57      0.00     -0.00
                                0.00  71987.57      0.00
                               -0.00      0.00  71987.57

     local   stress (kbar) -10846.19     -0.00      0.00
                               -0.00 -10846.19      0.00
                                0.00      0.00 -10846.22

     nonloc. stress (kbar)  33246.42      0.00      0.00
                                0.00  33246.42     -0.00
                                0.00     -0.00  33246.42

     hartree stress (kbar)  18316.91     -0.00     -0.00
                               -0.00  18316.91     -0.00
                               -0.00     -0.00  18316.92

     exc-cor stress (kbar)  19012.52     -0.00      0.00
                               -0.00  19012.52     -0.00
                                0.00     -0.00  19012.52

     corecor stress (kbar) -35360.08      0.00     -0.00
                                0.00 -35360.08      0.00
                               -0.00      0.00 -35360.08

     ewald   stress (kbar) -96268.36     -0.00      0.00
                               -0.00 -96268.36      0.00
                                0.00      0.00 -96268.36

     hubbard stress (kbar)      0.00      0.00      0.00
                                0.00      0.00      0.00
                                0.00      0.00      0.00

     DFT-D   stress (kbar)      0.00      0.00      0.00
                                0.00      0.00      0.00
                                0.00      0.00      0.00

     XDM     stress (kbar)      0.00      0.00      0.00
                                0.00      0.00      0.00
                                0.00      0.00      0.00

     dft-nl  stress (kbar)      0.00      0.00      0.00
                                0.00      0.00      0.00
                                0.00      0.00      0.00

     TS-vdW  stress (kbar)      0.00      0.00      0.00
                                0.00      0.00      0.00
                                0.00      0.00      0.00

     MDB     stress (kbar)      0.00      0.00      0.00
                                0.00      0.00      0.00
                                0.00      0.00      0.00

     3D-RISM stress (kbar)      0.00      0.00      0.00
                                0.00      0.00      0.00
                                0.00      0.00      0.00


     Writing all to output data dir ./Pt.save/ :
     XML data file, charge density
     init_run     :      1.48s CPU      1.61s WALL (       1 calls)
     electrons    :     39.51s CPU     42.78s WALL (       1 calls)
     forces       :      1.53s CPU      1.60s WALL (       1 calls)
     stress       :      2.80s CPU      2.84s WALL (       1 calls)

     Called by init_run:
     wfcinit      :      1.27s CPU      1.39s WALL (       1 calls)
     wfcinit:atom :      0.01s CPU      0.01s WALL (     288 calls)
     wfcinit:wfcr :      1.24s CPU      1.36s WALL (     288 calls)
     potinit      :      0.11s CPU      0.11s WALL (       1 calls)
     hinit0       :      0.09s CPU      0.09s WALL (       1 calls)

     Called by electrons:
     c_bands      :     35.41s CPU     38.23s WALL (       9 calls)
     sum_band     :      4.02s CPU      4.46s WALL (       9 calls)
     v_of_rho     :      0.06s CPU      0.06s WALL (       9 calls)
     v_h          :      0.00s CPU      0.00s WALL (       9 calls)
     v_xc         :      0.07s CPU      0.07s WALL (      11 calls)
     mix_rho      :      0.01s CPU      0.01s WALL (       9 calls)

     Called by c_bands:
     init_us_2    :      0.22s CPU      0.24s WALL (    6048 calls)
     init_us_2:cp :      0.21s CPU      0.23s WALL (    6048 calls)
     cegterg      :     32.61s CPU     35.36s WALL (    2592 calls)

     Called by sum_band:
     sum_band:wei :      0.02s CPU      0.02s WALL (       9 calls)
     sum_band:loo :      3.99s CPU      4.43s WALL (       9 calls)
     sum_band:buf :      0.03s CPU      0.03s WALL (    2592 calls)
     sum_band:ini :      0.09s CPU      0.10s WALL (    2592 calls)

     Called by *egterg:
     cdiaghg      :      4.05s CPU      4.25s WALL (    9079 calls)
     cegterg:over :      0.91s CPU      0.99s WALL (    6775 calls)
     cegterg:upda :      0.24s CPU      0.26s WALL (    6775 calls)
     cegterg:last :      0.37s CPU      0.38s WALL (    5131 calls)
     h_psi        :     27.49s CPU     30.01s WALL (    9655 calls)
     g_psi        :      0.08s CPU      0.08s WALL (    6775 calls)

     Called by h_psi:
     h_psi:calbec :      1.12s CPU      1.26s WALL (    9655 calls)
     vloc_psi     :     23.75s CPU     25.87s WALL (    9655 calls)
     add_vuspsi   :      2.54s CPU      2.80s WALL (    9655 calls)

     General routines
     calbec       :      1.55s CPU      1.74s WALL (   11095 calls)
     fft          :      0.10s CPU      0.10s WALL (     337 calls)
     ffts         :      0.09s CPU      0.09s WALL (      72 calls)
     fftw         :     22.37s CPU     24.41s WALL (  856508 calls)
     interpolate  :      0.10s CPU      0.10s WALL (      36 calls)

     Parallel routines

     PWSCF        :     45.41s CPU     48.96s WALL


   This run was terminated on:   8:26:13  23Feb2024            

=------------------------------------------------------------------------------=
   JOB DONE.
=------------------------------------------------------------------------------=
