 175 175   0   0
  0.1144444E+03  0.2715674E-08  0.2715674E-08  0.2715674E-08  0.5000000E-15
  1.000000000000000E-004
  CAR 
 VASPCALC                                
      4.11625311    -31.87668022 3001     -4.94439120      1.00000000
    -31.877  0.0000E+00  0.0000E+00
    -31.865  0.0000E+00  0.0000E+00
    -31.853  0.0000E+00  0.0000E+00
    -31.841  0.0000E+00  0.0000E+00
    -31.829  0.0000E+00  0.0000E+00
    -31.817  0.0000E+00  0.0000E+00
    -31.805  0.0000E+00  0.0000E+00
    -31.793  0.0000E+00  0.0000E+00
    -31.781  0.0000E+00  0.0000E+00
    -31.769  0.0000E+00  0.0000E+00
    -31.757  0.0000E+00  0.0000E+00
    -31.745  0.0000E+00  0.0000E+00
    -31.733  0.0000E+00  0.0000E+00
    -31.721  0.0000E+00  0.0000E+00
    -31.709  0.0000E+00  0.0000E+00
    -31.697  0.0000E+00  0.0000E+00
    -31.685  0.0000E+00  0.0000E+00
    -31.673  0.0000E+00  0.0000E+00
    -31.661  0.0000E+00  0.0000E+00
    -31.649  0.0000E+00  0.0000E+00
    -31.637  0.0000E+00  0.0000E+00
    -31.625  0.0000E+00  0.0000E+00
    -31.613  0.0000E+00  0.0000E+00
    -31.601  0.0000E+00  0.0000E+00
    -31.589  0.0000E+00  0.0000E+00
    -31.577  0.0000E+00  0.0000E+00
    -31.565  0.0000E+00  0.0000E+00
    -31.553  0.0000E+00  0.0000E+00
    -31.541  0.0000E+00  0.0000E+00
    -31.529  0.0000E+00  0.0000E+00
    -31.517  0.0000E+00  0.0000E+00
    -31.505  0.0000E+00  0.0000E+00
    -31.493  0.0000E+00  0.0000E+00
    -31.481  0.0000E+00  0.0000E+00
    -31.469  0.0000E+00  0.0000E+00
    -31.457  0.0000E+00  0.0000E+00
    -31.445  0.0000E+00  0.0000E+00
    -31.433  0.0000E+00  0.0000E+00
    -31.421  0.0000E+00  0.0000E+00
    -31.409  0.0000E+00  0.0000E+00
    -31.397  0.0000E+00  0.0000E+00
    -31.385  0.0000E+00  0.0000E+00
    -31.373  0.0000E+00  0.0000E+00
    -31.361  0.0000E+00  0.0000E+00
    -31.349  0.0000E+00  0.0000E+00
    -31.337  0.0000E+00  0.0000E+00
    -31.325  0.0000E+00  0.0000E+00
    -31.313  0.0000E+00  0.0000E+00
    -31.301  0.0000E+00  0.0000E+00
    -31.289  0.0000E+00  0.0000E+00
    -31.277  0.0000E+00  0.0000E+00
    -31.265  0.0000E+00  0.0000E+00
    -31.253  0.0000E+00  0.0000E+00
    -31.241  0.0000E+00  0.0000E+00
    -31.229  0.0000E+00  0.0000E+00
    -31.217  0.0000E+00  0.0000E+00
    -31.205  0.0000E+00  0.0000E+00
    -31.193  0.0000E+00  0.0000E+00
    -31.181  0.0000E+00  0.0000E+00
    -31.169  0.0000E+00  0.0000E+00
    -31.157  0.0000E+00  0.0000E+00
    -31.145  0.0000E+00  0.0000E+00
    -31.133  0.0000E+00  0.0000E+00
    -31.121  0.0000E+00  0.0000E+00
    -31.109  0.0000E+00  0.0000E+00
    -31.097  0.0000E+00  0.0000E+00
    -31.085  0.0000E+00  0.0000E+00
    -31.073  0.0000E+00  0.0000E+00
    -31.061  0.0000E+00  0.0000E+00
    -31.049  0.0000E+00  0.0000E+00
    -31.037  0.0000E+00  0.0000E+00
    -31.025  0.0000E+00  0.0000E+00
    -31.013  0.0000E+00  0.0000E+00
    -31.001  0.0000E+00  0.0000E+00
    -30.989  0.0000E+00  0.0000E+00
    -30.977  0.0000E+00  0.0000E+00
    -30.965  0.0000E+00  0.0000E+00
    -30.953  0.0000E+00  0.0000E+00
    -30.941  0.0000E+00  0.0000E+00
    -30.929  0.0000E+00  0.0000E+00
    -30.917  0.0000E+00  0.0000E+00
    -30.905  0.0000E+00  0.0000E+00
    -30.893  0.0000E+00  0.0000E+00
    -30.881  0.0000E+00  0.0000E+00
    -30.869  0.0000E+00  0.0000E+00
    -30.857  0.0000E+00  0.0000E+00
    -30.845  0.0000E+00  0.0000E+00
    -30.833  0.0000E+00  0.0000E+00
    -30.821  0.0000E+00  0.0000E+00
    -30.809  0.0000E+00  0.0000E+00
    -30.797  0.0000E+00  0.0000E+00
    -30.785  0.0000E+00  0.0000E+00
    -30.773  0.0000E+00  0.0000E+00
    -30.761  0.0000E+00  0.0000E+00
    -30.749  0.0000E+00  0.0000E+00
    -30.737  0.0000E+00  0.0000E+00
    -30.725  0.0000E+00  0.0000E+00
    -30.713  0.0000E+00  0.0000E+00
    -30.701  0.0000E+00  0.0000E+00
    -30.689  0.0000E+00  0.0000E+00
    -30.677  0.0000E+00  0.0000E+00
    -30.665  0.0000E+00  0.0000E+00
    -30.653  0.0000E+00  0.0000E+00
    -30.641  0.0000E+00  0.0000E+00
    -30.629  0.0000E+00  0.0000E+00
    -30.617  0.0000E+00  0.0000E+00
    -30.605  0.0000E+00  0.0000E+00
    -30.593  0.0000E+00  0.0000E+00
    -30.581  0.0000E+00  0.0000E+00
    -30.569  0.0000E+00  0.0000E+00
    -30.557  0.0000E+00  0.0000E+00
    -30.545  0.0000E+00  0.0000E+00
    -30.533  0.0000E+00  0.0000E+00
    -30.521  0.0000E+00  0.0000E+00
    -30.509  0.0000E+00  0.0000E+00
    -30.497  0.0000E+00  0.0000E+00
    -30.485  0.0000E+00  0.0000E+00
    -30.473  0.0000E+00  0.0000E+00
    -30.461  0.0000E+00  0.0000E+00
    -30.449  0.0000E+00  0.0000E+00
    -30.437  0.0000E+00  0.0000E+00
    -30.425  0.0000E+00  0.0000E+00
    -30.413  0.0000E+00  0.0000E+00
    -30.401  0.0000E+00  0.0000E+00
    -30.389  0.0000E+00  0.0000E+00
    -30.377  0.0000E+00  0.0000E+00
    -30.365  0.0000E+00  0.0000E+00
    -30.353  0.0000E+00  0.0000E+00
    -30.341  0.0000E+00  0.0000E+00
    -30.329  0.0000E+00  0.0000E+00
    -30.317  0.0000E+00  0.0000E+00
    -30.305  0.0000E+00  0.0000E+00
    -30.293  0.0000E+00  0.0000E+00
    -30.281  0.0000E+00  0.0000E+00
    -30.269  0.0000E+00  0.0000E+00
    -30.257  0.0000E+00  0.0000E+00
    -30.245  0.0000E+00  0.0000E+00
    -30.233  0.0000E+00  0.2000E+01
    -30.221  0.0000E+00  0.2000E+01
    -30.209  0.0000E+00  0.2000E+01
    -30.197  0.0000E+00  0.2000E+01
    -30.185  0.0000E+00  0.2000E+01
    -30.173  0.0000E+00  0.2000E+01
    -30.161  0.0000E+00  0.2000E+01
    -30.149  0.0000E+00  0.2000E+01
    -30.137  0.0000E+00  0.2000E+01
    -30.125  0.0000E+00  0.2000E+01
    -30.113  0.0000E+00  0.2000E+01
    -30.101  0.0000E+00  0.2000E+01
    -30.089  0.0000E+00  0.2000E+01
    -30.077  0.0000E+00  0.2000E+01
    -30.065  0.0000E+00  0.2000E+01
    -30.053  0.0000E+00  0.2000E+01
    -30.041  0.0000E+00  0.2000E+01
    -30.029  0.0000E+00  0.2000E+01
    -30.017  0.0000E+00  0.2000E+01
    -30.005  0.0000E+00  0.2000E+01
    -29.993  0.0000E+00  0.2000E+01
    -29.981  0.0000E+00  0.2000E+01
    -29.969  0.0000E+00  0.2000E+01
    -29.957  0.0000E+00  0.2000E+01
    -29.945  0.0000E+00  0.2000E+01
    -29.933  0.0000E+00  0.2000E+01
    -29.921  0.0000E+00  0.2000E+01
    -29.909  0.0000E+00  0.2000E+01
    -29.897  0.0000E+00  0.2000E+01
    -29.885  0.0000E+00  0.2000E+01
    -29.873  0.0000E+00  0.2000E+01
    -29.861  0.0000E+00  0.2000E+01
    -29.849  0.0000E+00  0.2000E+01
    -29.837  0.0000E+00  0.2000E+01
    -29.825  0.0000E+00  0.2000E+01
    -29.813  0.0000E+00  0.2000E+01
    -29.801  0.0000E+00  0.2000E+01
    -29.789  0.0000E+00  0.2000E+01
    -29.777  0.0000E+00  0.2000E+01
    -29.765  0.0000E+00  0.2000E+01
    -29.753  0.0000E+00  0.2000E+01
    -29.741  0.0000E+00  0.2000E+01
    -29.729  0.0000E+00  0.2000E+01
    -29.717  0.0000E+00  0.4000E+01
    -29.705  0.0000E+00  0.4000E+01
    -29.693  0.0000E+00  0.4000E+01
    -29.681  0.0000E+00  0.4000E+01
    -29.669  0.0000E+00  0.4000E+01
    -29.657  0.0000E+00  0.4000E+01
    -29.645  0.0000E+00  0.4000E+01
    -29.633  0.0000E+00  0.4000E+01
    -29.621  0.0000E+00  0.4000E+01
    -29.609  0.0000E+00  0.4000E+01
    -29.597  0.0000E+00  0.4000E+01
    -29.585  0.0000E+00  0.4000E+01
    -29.573  0.0000E+00  0.4000E+01
    -29.561  0.0000E+00  0.4000E+01
    -29.549  0.0000E+00  0.4000E+01
    -29.537  0.0000E+00  0.4000E+01
    -29.525  0.0000E+00  0.4000E+01
    -29.513  0.0000E+00  0.4000E+01
    -29.501  0.0000E+00  0.4000E+01
    -29.489  0.0000E+00  0.4000E+01
    -29.477  0.0000E+00  0.4000E+01
    -29.465  0.0000E+00  0.4000E+01
    -29.453  0.0000E+00  0.4000E+01
    -29.441  0.0000E+00  0.4000E+01
    -29.429  0.0000E+00  0.4000E+01
    -29.417  0.0000E+00  0.4000E+01
    -29.405  0.0000E+00  0.4000E+01
    -29.393  0.0000E+00  0.4000E+01
    -29.381  0.0000E+00  0.4000E+01
    -29.369  0.0000E+00  0.4000E+01
    -29.357  0.0000E+00  0.4000E+01
    -29.345  0.0000E+00  0.4000E+01
    -29.333  0.0000E+00  0.4000E+01
    -29.321  0.0000E+00  0.4000E+01
    -29.309  0.0000E+00  0.4000E+01
    -29.297  0.0000E+00  0.4000E+01
    -29.285  0.0000E+00  0.4000E+01
    -29.273  0.0000E+00  0.4000E+01
    -29.261  0.0000E+00  0.4000E+01
    -29.249  0.0000E+00  0.4000E+01
    -29.237  0.0000E+00  0.4000E+01
    -29.225  0.0000E+00  0.4000E+01
    -29.213  0.0000E+00  0.4000E+01
    -29.201  0.0000E+00  0.4000E+01
    -29.189  0.0000E+00  0.4000E+01
    -29.177  0.0000E+00  0.4000E+01
    -29.165  0.0000E+00  0.4000E+01
    -29.153  0.0000E+00  0.4000E+01
    -29.141  0.0000E+00  0.4000E+01
    -29.129  0.0000E+00  0.4000E+01
    -29.117  0.0000E+00  0.4000E+01
    -29.105  0.0000E+00  0.4000E+01
    -29.093  0.0000E+00  0.4000E+01
    -29.081  0.0000E+00  0.4000E+01
    -29.069  0.0000E+00  0.4000E+01
    -29.057  0.0000E+00  0.4000E+01
    -29.045  0.0000E+00  0.4000E+01
    -29.033  0.0000E+00  0.4000E+01
    -29.021  0.0000E+00  0.4000E+01
    -29.009  0.0000E+00  0.4000E+01
    -28.997  0.0000E+00  0.4000E+01
    -28.985  0.0000E+00  0.4000E+01
    -28.973  0.0000E+00  0.4000E+01
    -28.961  0.0000E+00  0.4000E+01
    -28.949  0.0000E+00  0.4000E+01
    -28.937  0.0000E+00  0.4000E+01
    -28.925  0.0000E+00  0.4000E+01
    -28.913  0.0000E+00  0.4000E+01
    -28.901  0.0000E+00  0.4000E+01
    -28.889  0.0000E+00  0.4000E+01
    -28.877  0.0000E+00  0.4000E+01
    -28.865  0.0000E+00  0.4000E+01
    -28.853  0.0000E+00  0.4000E+01
    -28.841  0.0000E+00  0.6000E+01
    -28.829  0.0000E+00  0.6000E+01
    -28.817  0.0000E+00  0.6000E+01
    -28.805  0.0000E+00  0.6000E+01
    -28.793  0.0000E+00  0.6000E+01
    -28.781  0.0000E+00  0.6000E+01
    -28.769  0.0000E+00  0.6000E+01
    -28.757  0.0000E+00  0.6000E+01
    -28.745  0.0000E+00  0.6000E+01
    -28.733  0.0000E+00  0.6000E+01
    -28.721  0.0000E+00  0.6000E+01
    -28.709  0.0000E+00  0.6000E+01
    -28.697  0.0000E+00  0.6000E+01
    -28.685  0.0000E+00  0.6000E+01
    -28.673  0.0000E+00  0.6000E+01
    -28.661  0.0000E+00  0.6000E+01
    -28.649  0.0000E+00  0.6000E+01
    -28.637  0.0000E+00  0.6000E+01
    -28.625  0.0000E+00  0.6000E+01
    -28.613  0.0000E+00  0.6000E+01
    -28.601  0.0000E+00  0.6000E+01
    -28.589  0.0000E+00  0.6000E+01
    -28.577  0.0000E+00  0.6000E+01
    -28.565  0.0000E+00  0.6000E+01
    -28.553  0.0000E+00  0.6000E+01
    -28.541  0.0000E+00  0.6000E+01
    -28.529  0.0000E+00  0.6000E+01
    -28.517  0.0000E+00  0.6000E+01
    -28.505  0.0000E+00  0.6000E+01
    -28.493  0.0000E+00  0.6000E+01
    -28.481  0.0000E+00  0.6000E+01
    -28.469  0.0000E+00  0.6000E+01
    -28.457  0.0000E+00  0.8000E+01
    -28.445  0.0000E+00  0.8000E+01
    -28.433  0.0000E+00  0.8000E+01
    -28.421  0.0000E+00  0.8000E+01
    -28.409  0.0000E+00  0.8000E+01
    -28.397  0.0000E+00  0.8000E+01
    -28.385  0.0000E+00  0.8000E+01
    -28.373  0.0000E+00  0.8000E+01
    -28.361  0.0000E+00  0.8000E+01
    -28.349  0.0000E+00  0.8000E+01
    -28.337  0.0000E+00  0.1000E+02
    -28.325  0.0000E+00  0.1000E+02
    -28.313  0.0000E+00  0.1000E+02
    -28.301  0.0000E+00  0.1000E+02
    -28.289  0.0000E+00  0.1000E+02
    -28.277  0.0000E+00  0.1000E+02
    -28.265  0.0000E+00  0.1000E+02
    -28.253  0.0000E+00  0.1000E+02
    -28.241  0.0000E+00  0.1000E+02
    -28.229  0.0000E+00  0.1000E+02
    -28.217  0.0000E+00  0.1000E+02
    -28.205  0.0000E+00  0.1000E+02
    -28.193  0.0000E+00  0.1000E+02
    -28.181  0.0000E+00  0.1000E+02
    -28.169  0.0000E+00  0.1000E+02
    -28.157  0.0000E+00  0.1000E+02
    -28.145  0.0000E+00  0.1000E+02
    -28.133  0.0000E+00  0.1000E+02
    -28.121  0.0000E+00  0.1000E+02
    -28.109  0.0000E+00  0.1000E+02
    -28.097  0.0000E+00  0.1000E+02
    -28.085  0.0000E+00  0.1000E+02
    -28.073  0.0000E+00  0.1000E+02
    -28.061  0.0000E+00  0.1000E+02
    -28.049  0.0000E+00  0.1000E+02
    -28.037  0.0000E+00  0.1000E+02
    -28.025  0.0000E+00  0.1000E+02
    -28.013  0.0000E+00  0.1000E+02
    -28.001  0.0000E+00  0.1000E+02
    -27.989  0.0000E+00  0.1000E+02
    -27.977  0.0000E+00  0.1000E+02
    -27.965  0.0000E+00  0.1000E+02
    -27.953  0.0000E+00  0.1000E+02
    -27.941  0.0000E+00  0.1000E+02
    -27.929  0.0000E+00  0.1000E+02
    -27.917  0.0000E+00  0.1000E+02
    -27.905  0.0000E+00  0.1200E+02
    -27.893  0.0000E+00  0.1200E+02
    -27.881  0.0000E+00  0.1200E+02
    -27.869  0.0000E+00  0.1200E+02
    -27.857  0.0000E+00  0.1200E+02
    -27.845  0.0000E+00  0.1200E+02
    -27.833  0.0000E+00  0.1200E+02
    -27.821  0.0000E+00  0.1400E+02
    -27.809  0.0000E+00  0.1400E+02
    -27.797  0.0000E+00  0.1400E+02
    -27.785  0.0000E+00  0.1400E+02
    -27.773  0.0000E+00  0.1400E+02
    -27.761  0.0000E+00  0.1400E+02
    -27.749  0.0000E+00  0.1400E+02
    -27.737  0.0000E+00  0.1400E+02
    -27.725  0.0000E+00  0.1400E+02
    -27.713  0.0000E+00  0.1400E+02
    -27.701  0.0000E+00  0.1400E+02
    -27.690  0.0000E+00  0.1400E+02
    -27.678  0.0000E+00  0.1400E+02
    -27.666  0.0000E+00  0.1400E+02
    -27.654  0.0000E+00  0.1400E+02
    -27.642  0.0000E+00  0.1400E+02
    -27.630  0.0000E+00  0.1400E+02
    -27.618  0.0000E+00  0.1400E+02
    -27.606  0.0000E+00  0.1400E+02
    -27.594  0.0000E+00  0.1400E+02
    -27.582  0.0000E+00  0.1400E+02
    -27.570  0.0000E+00  0.1400E+02
    -27.558  0.0000E+00  0.1400E+02
    -27.546  0.0000E+00  0.1400E+02
    -27.534  0.0000E+00  0.1400E+02
    -27.522  0.0000E+00  0.1400E+02
    -27.510  0.0000E+00  0.1400E+02
    -27.498  0.0000E+00  0.1400E+02
    -27.486  0.0000E+00  0.1400E+02
    -27.474  0.0000E+00  0.1400E+02
    -27.462  0.0000E+00  0.1400E+02
    -27.450  0.0000E+00  0.1400E+02
    -27.438  0.0000E+00  0.1400E+02
    -27.426  0.0000E+00  0.1400E+02
    -27.414  0.0000E+00  0.1400E+02
    -27.402  0.0000E+00  0.1600E+02
    -27.390  0.0000E+00  0.1600E+02
    -27.378  0.0000E+00  0.1800E+02
    -27.366  0.0000E+00  0.1800E+02
    -27.354  0.0000E+00  0.1800E+02
    -27.342  0.0000E+00  0.1800E+02
    -27.330  0.0000E+00  0.1800E+02
    -27.318  0.0000E+00  0.1800E+02
    -27.306  0.0000E+00  0.1800E+02
    -27.294  0.0000E+00  0.1800E+02
    -27.282  0.0000E+00  0.1800E+02
    -27.270  0.0000E+00  0.1800E+02
    -27.258  0.0000E+00  0.1800E+02
    -27.246  0.0000E+00  0.1800E+02
    -27.234  0.0000E+00  0.1800E+02
    -27.222  0.0000E+00  0.1800E+02
    -27.210  0.0000E+00  0.1800E+02
    -27.198  0.0000E+00  0.1800E+02
    -27.186  0.0000E+00  0.1800E+02
    -27.174  0.0000E+00  0.1800E+02
    -27.162  0.0000E+00  0.1800E+02
    -27.150  0.0000E+00  0.1800E+02
    -27.138  0.0000E+00  0.1800E+02
    -27.126  0.0000E+00  0.1800E+02
    -27.114  0.0000E+00  0.1800E+02
    -27.102  0.0000E+00  0.1800E+02
    -27.090  0.0000E+00  0.1800E+02
    -27.078  0.0000E+00  0.1800E+02
    -27.066  0.0000E+00  0.1800E+02
    -27.054  0.0000E+00  0.1800E+02
    -27.042  0.0000E+00  0.1800E+02
    -27.030  0.0000E+00  0.1800E+02
    -27.018  0.0000E+00  0.1800E+02
    -27.006  0.0000E+00  0.1800E+02
    -26.994  0.0000E+00  0.1800E+02
    -26.982  0.0000E+00  0.1800E+02
    -26.970  0.0000E+00  0.1800E+02
    -26.958  0.0000E+00  0.1800E+02
    -26.946  0.0000E+00  0.1800E+02
    -26.934  0.0000E+00  0.1800E+02
    -26.922  0.0000E+00  0.1800E+02
    -26.910  0.0000E+00  0.1800E+02
    -26.898  0.0000E+00  0.1800E+02
    -26.886  0.0000E+00  0.2000E+02
    -26.874  0.0000E+00  0.2000E+02
    -26.862  0.0000E+00  0.2000E+02
    -26.850  0.0000E+00  0.2000E+02
    -26.838  0.0000E+00  0.2000E+02
    -26.826  0.0000E+00  0.2000E+02
    -26.814  0.0000E+00  0.2000E+02
    -26.802  0.0000E+00  0.2000E+02
    -26.790  0.0000E+00  0.2000E+02
    -26.778  0.0000E+00  0.2000E+02
    -26.766  0.0000E+00  0.2000E+02
    -26.754  0.0000E+00  0.2000E+02
    -26.742  0.0000E+00  0.2000E+02
    -26.730  0.0000E+00  0.2000E+02
    -26.718  0.0000E+00  0.2000E+02
    -26.706  0.0000E+00  0.2000E+02
    -26.694  0.0000E+00  0.2000E+02
    -26.682  0.0000E+00  0.2000E+02
    -26.670  0.0000E+00  0.2200E+02
    -26.658  0.0000E+00  0.2400E+02
    -26.646  0.0000E+00  0.2400E+02
    -26.634  0.0000E+00  0.2400E+02
    -26.622  0.0000E+00  0.2400E+02
    -26.610  0.0000E+00  0.2400E+02
    -26.598  0.0000E+00  0.2600E+02
    -26.586  0.0000E+00  0.2600E+02
    -26.574  0.0000E+00  0.2600E+02
    -26.562  0.0000E+00  0.2600E+02
    -26.550  0.0000E+00  0.2600E+02
    -26.538  0.0000E+00  0.2600E+02
    -26.526  0.0000E+00  0.2600E+02
    -26.514  0.0000E+00  0.2600E+02
    -26.502  0.0000E+00  0.2600E+02
    -26.490  0.0000E+00  0.2600E+02
    -26.478  0.0000E+00  0.2600E+02
    -26.466  0.0000E+00  0.2600E+02
    -26.454  0.0000E+00  0.2600E+02
    -26.442  0.0000E+00  0.2600E+02
    -26.430  0.0000E+00  0.2600E+02
    -26.418  0.0000E+00  0.2600E+02
    -26.406  0.0000E+00  0.2600E+02
    -26.394  0.0000E+00  0.2600E+02
    -26.382  0.0000E+00  0.2600E+02
    -26.370  0.0000E+00  0.2600E+02
    -26.358  0.0000E+00  0.2600E+02
    -26.346  0.0000E+00  0.2600E+02
    -26.334  0.0000E+00  0.2600E+02
    -26.322  0.0000E+00  0.2600E+02
    -26.310  0.0000E+00  0.2600E+02
    -26.298  0.0000E+00  0.2600E+02
    -26.286  0.0000E+00  0.2600E+02
    -26.274  0.0000E+00  0.2600E+02
    -26.262  0.0000E+00  0.2600E+02
    -26.250  0.0000E+00  0.2600E+02
    -26.238  0.0000E+00  0.2600E+02
    -26.226  0.0000E+00  0.2600E+02
    -26.214  0.0000E+00  0.2600E+02
    -26.202  0.0000E+00  0.2600E+02
    -26.190  0.0000E+00  0.2600E+02
    -26.178  0.0000E+00  0.2600E+02
    -26.166  0.0000E+00  0.2600E+02
    -26.154  0.0000E+00  0.2600E+02
    -26.142  0.0000E+00  0.2600E+02
    -26.130  0.0000E+00  0.2600E+02
    -26.118  0.0000E+00  0.2600E+02
    -26.106  0.0000E+00  0.2600E+02
    -26.094  0.0000E+00  0.2600E+02
    -26.082  0.0000E+00  0.2600E+02
    -26.070  0.0000E+00  0.2600E+02
    -26.058  0.0000E+00  0.2600E+02
    -26.046  0.0000E+00  0.2600E+02
    -26.034  0.0000E+00  0.2600E+02
    -26.022  0.0000E+00  0.2600E+02
    -26.010  0.0000E+00  0.2600E+02
    -25.998  0.0000E+00  0.2600E+02
    -25.986  0.0000E+00  0.2600E+02
    -25.974  0.0000E+00  0.2600E+02
    -25.962  0.0000E+00  0.2600E+02
    -25.950  0.0000E+00  0.2600E+02
    -25.938  0.0000E+00  0.2600E+02
    -25.926  0.0000E+00  0.2600E+02
    -25.914  0.0000E+00  0.2600E+02
    -25.902  0.0000E+00  0.2600E+02
    -25.890  0.0000E+00  0.2600E+02
    -25.878  0.0000E+00  0.2600E+02
    -25.866  0.0000E+00  0.2600E+02
    -25.854  0.0000E+00  0.2600E+02
    -25.842  0.0000E+00  0.2600E+02
    -25.830  0.0000E+00  0.2600E+02
    -25.818  0.0000E+00  0.2600E+02
    -25.806  0.0000E+00  0.2600E+02
    -25.794  0.0000E+00  0.2600E+02
    -25.782  0.0000E+00  0.2600E+02
    -25.770  0.0000E+00  0.2600E+02
    -25.758  0.0000E+00  0.2600E+02
    -25.746  0.0000E+00  0.2600E+02
    -25.734  0.0000E+00  0.2600E+02
    -25.722  0.0000E+00  0.2600E+02
    -25.710  0.0000E+00  0.2600E+02
    -25.698  0.0000E+00  0.2600E+02
    -25.686  0.0000E+00  0.2600E+02
    -25.674  0.0000E+00  0.2600E+02
    -25.662  0.0000E+00  0.2600E+02
    -25.650  0.0000E+00  0.2600E+02
    -25.638  0.0000E+00  0.2600E+02
    -25.626  0.0000E+00  0.2600E+02
    -25.614  0.0000E+00  0.2600E+02
    -25.602  0.0000E+00  0.2600E+02
    -25.590  0.0000E+00  0.2600E+02
    -25.578  0.0000E+00  0.2600E+02
    -25.566  0.0000E+00  0.2600E+02
    -25.554  0.0000E+00  0.2600E+02
    -25.542  0.0000E+00  0.2600E+02
    -25.530  0.0000E+00  0.2600E+02
    -25.518  0.0000E+00  0.2600E+02
    -25.506  0.0000E+00  0.2600E+02
    -25.494  0.0000E+00  0.2600E+02
    -25.482  0.0000E+00  0.2600E+02
    -25.470  0.0000E+00  0.2600E+02
    -25.458  0.0000E+00  0.2600E+02
    -25.446  0.0000E+00  0.2600E+02
    -25.434  0.0000E+00  0.2600E+02
    -25.422  0.0000E+00  0.2600E+02
    -25.410  0.0000E+00  0.2600E+02
    -25.398  0.0000E+00  0.2600E+02
    -25.386  0.0000E+00  0.2600E+02
    -25.374  0.0000E+00  0.2600E+02
    -25.362  0.0000E+00  0.2600E+02
    -25.350  0.0000E+00  0.2600E+02
    -25.338  0.0000E+00  0.2600E+02
    -25.326  0.0000E+00  0.2600E+02
    -25.314  0.0000E+00  0.2600E+02
    -25.302  0.0000E+00  0.2600E+02
    -25.290  0.0000E+00  0.2600E+02
    -25.278  0.0000E+00  0.2600E+02
    -25.266  0.0000E+00  0.2600E+02
    -25.254  0.0000E+00  0.2600E+02
    -25.242  0.0000E+00  0.2600E+02
    -25.230  0.0000E+00  0.2600E+02
    -25.218  0.0000E+00  0.2600E+02
    -25.206  0.0000E+00  0.2600E+02
    -25.194  0.0000E+00  0.2600E+02
    -25.182  0.0000E+00  0.2600E+02
    -25.170  0.0000E+00  0.2600E+02
    -25.158  0.0000E+00  0.2600E+02
    -25.146  0.0000E+00  0.2600E+02
    -25.134  0.0000E+00  0.2600E+02
    -25.122  0.0000E+00  0.2600E+02
    -25.110  0.0000E+00  0.2600E+02
    -25.098  0.0000E+00  0.2600E+02
    -25.086  0.0000E+00  0.2600E+02
    -25.074  0.0000E+00  0.2600E+02
    -25.062  0.0000E+00  0.2600E+02
    -25.050  0.0000E+00  0.2600E+02
    -25.038  0.0000E+00  0.2600E+02
    -25.026  0.0000E+00  0.2600E+02
    -25.014  0.0000E+00  0.2600E+02
    -25.002  0.0000E+00  0.2600E+02
    -24.990  0.0000E+00  0.2600E+02
    -24.978  0.0000E+00  0.2600E+02
    -24.966  0.0000E+00  0.2600E+02
    -24.954  0.0000E+00  0.2600E+02
    -24.942  0.0000E+00  0.2600E+02
    -24.930  0.0000E+00  0.2600E+02
    -24.918  0.0000E+00  0.2600E+02
    -24.906  0.0000E+00  0.2600E+02
    -24.894  0.0000E+00  0.2600E+02
    -24.882  0.0000E+00  0.2600E+02
    -24.870  0.0000E+00  0.2600E+02
    -24.858  0.0000E+00  0.2600E+02
    -24.846  0.0000E+00  0.2600E+02
    -24.834  0.0000E+00  0.2600E+02
    -24.822  0.0000E+00  0.2600E+02
    -24.810  0.0000E+00  0.2800E+02
    -24.798  0.0000E+00  0.2800E+02
    -24.786  0.0000E+00  0.2800E+02
    -24.774  0.0000E+00  0.2800E+02
    -24.762  0.0000E+00  0.2800E+02
    -24.750  0.0000E+00  0.2800E+02
    -24.738  0.0000E+00  0.2800E+02
    -24.726  0.0000E+00  0.2800E+02
    -24.714  0.0000E+00  0.2800E+02
    -24.702  0.0000E+00  0.2800E+02
    -24.690  0.0000E+00  0.2800E+02
    -24.678  0.0000E+00  0.2800E+02
    -24.666  0.0000E+00  0.2800E+02
    -24.654  0.0000E+00  0.2800E+02
    -24.642  0.0000E+00  0.2800E+02
    -24.630  0.0000E+00  0.2800E+02
    -24.618  0.0000E+00  0.2800E+02
    -24.606  0.0000E+00  0.2800E+02
    -24.594  0.0000E+00  0.2800E+02
    -24.582  0.0000E+00  0.2800E+02
    -24.570  0.0000E+00  0.2800E+02
    -24.558  0.0000E+00  0.2800E+02
    -24.546  0.0000E+00  0.2800E+02
    -24.534  0.0000E+00  0.2800E+02
    -24.522  0.0000E+00  0.2800E+02
    -24.510  0.0000E+00  0.2800E+02
    -24.498  0.0000E+00  0.2800E+02
    -24.486  0.0000E+00  0.2800E+02
    -24.474  0.0000E+00  0.2800E+02
    -24.462  0.0000E+00  0.2800E+02
    -24.450  0.0000E+00  0.2800E+02
    -24.438  0.0000E+00  0.2800E+02
    -24.426  0.0000E+00  0.2800E+02
    -24.414  0.0000E+00  0.2800E+02
    -24.402  0.0000E+00  0.2800E+02
    -24.390  0.0000E+00  0.2800E+02
    -24.378  0.0000E+00  0.2800E+02
    -24.366  0.0000E+00  0.2800E+02
    -24.354  0.0000E+00  0.2800E+02
    -24.342  0.0000E+00  0.2800E+02
    -24.330  0.0000E+00  0.2800E+02
    -24.318  0.0000E+00  0.3000E+02
    -24.306  0.0000E+00  0.3000E+02
    -24.294  0.0000E+00  0.3000E+02
    -24.282  0.0000E+00  0.3000E+02
    -24.270  0.0000E+00  0.3000E+02
    -24.258  0.0000E+00  0.3000E+02
    -24.246  0.0000E+00  0.3000E+02
    -24.234  0.0000E+00  0.3000E+02
    -24.222  0.0000E+00  0.3000E+02
    -24.210  0.0000E+00  0.3000E+02
    -24.198  0.0000E+00  0.3000E+02
    -24.186  0.0000E+00  0.3000E+02
    -24.174  0.0000E+00  0.3000E+02
    -24.162  0.0000E+00  0.3000E+02
    -24.150  0.0000E+00  0.3000E+02
    -24.138  0.0000E+00  0.3000E+02
    -24.126  0.0000E+00  0.3000E+02
    -24.114  0.0000E+00  0.3000E+02
    -24.102  0.0000E+00  0.3000E+02
    -24.090  0.0000E+00  0.3000E+02
    -24.078  0.0000E+00  0.3000E+02
    -24.066  0.0000E+00  0.3000E+02
    -24.054  0.0000E+00  0.3000E+02
    -24.042  0.0000E+00  0.3000E+02
    -24.030  0.0000E+00  0.3000E+02
    -24.018  0.0000E+00  0.3000E+02
    -24.006  0.0000E+00  0.3000E+02
    -23.994  0.0000E+00  0.3000E+02
    -23.982  0.0000E+00  0.3000E+02
    -23.970  0.0000E+00  0.3000E+02
    -23.958  0.0000E+00  0.3000E+02
    -23.946  0.0000E+00  0.3000E+02
    -23.934  0.0000E+00  0.3000E+02
    -23.922  0.0000E+00  0.3000E+02
    -23.910  0.0000E+00  0.3000E+02
    -23.898  0.0000E+00  0.3000E+02
    -23.886  0.0000E+00  0.3000E+02
    -23.874  0.0000E+00  0.3000E+02
    -23.862  0.0000E+00  0.3000E+02
    -23.850  0.0000E+00  0.3000E+02
    -23.838  0.0000E+00  0.3000E+02
    -23.826  0.0000E+00  0.3000E+02
    -23.814  0.0000E+00  0.3000E+02
    -23.802  0.0000E+00  0.3000E+02
    -23.790  0.0000E+00  0.3000E+02
    -23.778  0.0000E+00  0.3000E+02
    -23.766  0.0000E+00  0.3000E+02
    -23.754  0.0000E+00  0.3000E+02
    -23.742  0.0000E+00  0.3000E+02
    -23.730  0.0000E+00  0.3000E+02
    -23.718  0.0000E+00  0.3200E+02
    -23.706  0.0000E+00  0.3200E+02
    -23.694  0.0000E+00  0.3200E+02
    -23.682  0.0000E+00  0.3200E+02
    -23.670  0.0000E+00  0.3200E+02
    -23.658  0.0000E+00  0.3200E+02
    -23.646  0.0000E+00  0.3200E+02
    -23.634  0.0000E+00  0.3200E+02
    -23.622  0.0000E+00  0.3200E+02
    -23.610  0.0000E+00  0.3200E+02
    -23.598  0.0000E+00  0.3200E+02
    -23.586  0.0000E+00  0.3200E+02
    -23.574  0.0000E+00  0.3200E+02
    -23.562  0.0000E+00  0.3200E+02
    -23.550  0.0000E+00  0.3200E+02
    -23.538  0.0000E+00  0.3200E+02
    -23.526  0.0000E+00  0.3200E+02
    -23.514  0.0000E+00  0.3200E+02
    -23.502  0.0000E+00  0.3200E+02
    -23.490  0.0000E+00  0.3200E+02
    -23.478  0.0000E+00  0.3200E+02
    -23.466  0.0000E+00  0.3200E+02
    -23.454  0.0000E+00  0.3200E+02
    -23.442  0.0000E+00  0.3200E+02
    -23.430  0.0000E+00  0.3200E+02
    -23.418  0.0000E+00  0.3200E+02
    -23.406  0.0000E+00  0.3200E+02
    -23.394  0.0000E+00  0.3200E+02
    -23.382  0.0000E+00  0.3200E+02
    -23.370  0.0000E+00  0.3200E+02
    -23.358  0.0000E+00  0.3200E+02
    -23.346  0.0000E+00  0.3200E+02
    -23.334  0.0000E+00  0.3200E+02
    -23.322  0.0000E+00  0.3200E+02
    -23.310  0.0000E+00  0.3400E+02
    -23.298  0.0000E+00  0.3400E+02
    -23.286  0.0000E+00  0.3400E+02
    -23.274  0.0000E+00  0.3400E+02
    -23.262  0.0000E+00  0.3400E+02
    -23.250  0.0000E+00  0.3400E+02
    -23.238  0.0000E+00  0.3400E+02
    -23.226  0.0000E+00  0.3400E+02
    -23.214  0.0000E+00  0.3400E+02
    -23.202  0.0000E+00  0.3400E+02
    -23.190  0.0000E+00  0.3400E+02
    -23.178  0.0000E+00  0.3400E+02
    -23.166  0.0000E+00  0.3400E+02
    -23.154  0.0000E+00  0.3400E+02
    -23.142  0.0000E+00  0.3400E+02
    -23.130  0.0000E+00  0.3400E+02
    -23.118  0.0000E+00  0.3400E+02
    -23.106  0.0000E+00  0.3400E+02
    -23.094  0.0000E+00  0.3400E+02
    -23.082  0.0000E+00  0.3400E+02
    -23.070  0.0000E+00  0.3400E+02
    -23.058  0.0000E+00  0.3400E+02
    -23.046  0.0000E+00  0.3400E+02
    -23.034  0.0000E+00  0.3400E+02
    -23.022  0.0000E+00  0.3400E+02
    -23.010  0.0000E+00  0.3400E+02
    -22.998  0.0000E+00  0.3400E+02
    -22.986  0.0000E+00  0.3400E+02
    -22.974  0.0000E+00  0.3400E+02
    -22.962  0.0000E+00  0.3400E+02
    -22.950  0.0000E+00  0.3400E+02
    -22.938  0.0000E+00  0.3400E+02
    -22.926  0.0000E+00  0.3600E+02
    -22.914  0.0000E+00  0.3600E+02
    -22.902  0.0000E+00  0.3600E+02
    -22.890  0.0000E+00  0.3600E+02
    -22.878  0.0000E+00  0.3600E+02
    -22.866  0.0000E+00  0.3600E+02
    -22.854  0.0000E+00  0.3600E+02
    -22.842  0.0000E+00  0.3600E+02
    -22.830  0.0000E+00  0.3600E+02
    -22.818  0.0000E+00  0.3600E+02
    -22.806  0.0000E+00  0.3600E+02
    -22.794  0.0000E+00  0.3600E+02
    -22.782  0.0000E+00  0.3600E+02
    -22.770  0.0000E+00  0.3600E+02
    -22.758  0.0000E+00  0.3600E+02
    -22.746  0.0000E+00  0.3600E+02
    -22.734  0.0000E+00  0.3600E+02
    -22.722  0.0000E+00  0.3600E+02
    -22.710  0.0000E+00  0.3600E+02
    -22.698  0.0000E+00  0.3600E+02
    -22.686  0.0000E+00  0.3600E+02
    -22.674  0.0000E+00  0.3600E+02
    -22.662  0.0000E+00  0.3600E+02
    -22.650  0.0000E+00  0.3600E+02
    -22.638  0.0000E+00  0.3800E+02
    -22.626  0.0000E+00  0.3800E+02
    -22.614  0.0000E+00  0.3800E+02
    -22.603  0.0000E+00  0.3800E+02
    -22.591  0.0000E+00  0.3800E+02
    -22.579  0.0000E+00  0.3800E+02
    -22.567  0.0000E+00  0.4000E+02
    -22.555  0.0000E+00  0.4000E+02
    -22.543  0.0000E+00  0.4000E+02
    -22.531  0.0000E+00  0.4000E+02
    -22.519  0.0000E+00  0.4000E+02
    -22.507  0.0000E+00  0.4000E+02
    -22.495  0.0000E+00  0.4000E+02
    -22.483  0.0000E+00  0.4000E+02
    -22.471  0.0000E+00  0.4000E+02
    -22.459  0.0000E+00  0.4200E+02
    -22.447  0.0000E+00  0.4200E+02
    -22.435  0.0000E+00  0.4200E+02
    -22.423  0.0000E+00  0.4200E+02
    -22.411  0.0000E+00  0.4200E+02
    -22.399  0.0000E+00  0.4200E+02
    -22.387  0.0000E+00  0.4200E+02
    -22.375  0.0000E+00  0.4200E+02
    -22.363  0.0000E+00  0.4200E+02
    -22.351  0.0000E+00  0.4200E+02
    -22.339  0.0000E+00  0.4200E+02
    -22.327  0.0000E+00  0.4200E+02
    -22.315  0.0000E+00  0.4200E+02
    -22.303  0.0000E+00  0.4200E+02
    -22.291  0.0000E+00  0.4200E+02
    -22.279  0.0000E+00  0.4200E+02
    -22.267  0.0000E+00  0.4200E+02
    -22.255  0.0000E+00  0.4200E+02
    -22.243  0.0000E+00  0.4200E+02
    -22.231  0.0000E+00  0.4200E+02
    -22.219  0.0000E+00  0.4400E+02
    -22.207  0.0000E+00  0.4400E+02
    -22.195  0.0000E+00  0.4400E+02
    -22.183  0.0000E+00  0.4400E+02
    -22.171  0.0000E+00  0.4400E+02
    -22.159  0.0000E+00  0.4400E+02
    -22.147  0.0000E+00  0.4400E+02
    -22.135  0.0000E+00  0.4400E+02
    -22.123  0.0000E+00  0.4400E+02
    -22.111  0.0000E+00  0.4400E+02
    -22.099  0.0000E+00  0.4400E+02
    -22.087  0.0000E+00  0.4400E+02
    -22.075  0.0000E+00  0.4400E+02
    -22.063  0.0000E+00  0.4400E+02
    -22.051  0.0000E+00  0.4400E+02
    -22.039  0.0000E+00  0.4400E+02
    -22.027  0.0000E+00  0.4400E+02
    -22.015  0.0000E+00  0.4400E+02
    -22.003  0.0000E+00  0.4400E+02
    -21.991  0.0000E+00  0.4400E+02
    -21.979  0.0000E+00  0.4400E+02