 vasp.5.4.4.18Apr17-6-g9f103f2a35 (build Mar 26 2019 17:47:52) complex          
  
 executed on                LINUX date 2022.05.16  16:59:18
 running on  144 total cores
 distrk:  each k-point on  144 cores,    1 groups
 distr:  one band on NCORES_PER_BAND=  12 cores,   12 groups


--------------------------------------------------------------------------------------------------------


 INCAR:
 POTCAR:    PAW_PBE H 15Jun2001                   
 POTCAR:    PAW_PBE C 08Apr2002                   
 POTCAR:    PAW_PBE O 08Apr2002                   
 POTCAR:    PAW_PBE N 08Apr2002                   
 POTCAR:    PAW_PBE Al 04Jan2001                  
 POTCAR:    PAW_PBE H 15Jun2001                   
   VRHFIN =H: ultrasoft test                                                    
   LEXCH  = PE                                                                  
   EATOM  =    12.4884 eV,    0.9179 Ry                                         
                                                                                
   TITEL  = PAW_PBE H 15Jun2001                                                 
   LULTRA =        F    use ultrasoft PP ?                                      
   IUNSCR =        0    unscreen: 0-lin 1-nonlin 2-no                           
   RPACOR =    0.000    partial core radius                                     
   POMASS =    1.000; ZVAL   =    1.000    mass and valenz                      
   RCORE  =    1.100    outmost cutoff radius                                   
   RWIGS  =    0.700; RWIGS  =    0.370    wigner-seitz radius (au A)           
   ENMAX  =  250.000; ENMIN  =  200.000 eV                                      
   RCLOC  =    0.701    cutoff for local pot                                    
   LCOR   =        T    correct aug charges                                     
   LPAW   =        T    paw PP                                                  
   EAUG   =  400.000                                                            
   RMAX   =    1.123    core radius for proj-oper                               
   RAUG   =    1.200    factor for augmentation sphere                          
   RDEP   =    1.112    radius for radial grids                                 
   RDEPT  =    0.926    core radius for aug-charge                              
                                                                                
   Atomic configuration                                                         
    2 entries                                                                   
     n  l   j            E        occ.                                          
     1  0  0.50        -6.4927   1.0000                                         
     2  1  0.50        -3.4015   0.0000                                         
   Description                                                                  
     l       E           TYP  RCUT    TYP  RCUT                                 
     0     -6.4927494     23  1.100                                             
     0      6.8029130     23  1.100                                             
     1     -4.0817478     23  1.100                                             
  local pseudopotential read in
  atomic valenz-charges read in
  non local Contribution for L=           0  read in
    real space projection operators read in
  non local Contribution for L=           0  read in
    real space projection operators read in
  non local Contribution for L=           1  read in
    real space projection operators read in
    PAW grid and wavefunctions read in
 
   number of l-projection  operators is LMAX  =           3
   number of lm-projection operators is LMMAX =           5
 
 POTCAR:    PAW_PBE C 08Apr2002                   
   VRHFIN =C: s2p2                                                              
   LEXCH  = PE                                                                  
   EATOM  =   147.1560 eV,   10.8157 Ry                                         
                                                                                
   TITEL  = PAW_PBE C 08Apr2002                                                 
   LULTRA =        F    use ultrasoft PP ?                                      
   IUNSCR =        1    unscreen: 0-lin 1-nonlin 2-no                           
   RPACOR =    1.200    partial core radius                                     
   POMASS =   12.011; ZVAL   =    4.000    mass and valenz                      
   RCORE  =    1.500    outmost cutoff radius                                   
   RWIGS  =    1.630; RWIGS  =    0.863    wigner-seitz radius (au A)           
   ENMAX  =  400.000; ENMIN  =  300.000 eV                                      
   ICORE  =        2    local potential                                         
   LCOR   =        T    correct aug charges                                     
   LPAW   =        T    paw PP                                                  
   EAUG   =  644.873                                                            
   DEXC   =    0.000                                                            
   RMAX   =    1.529    core radius for proj-oper                               
   RAUG   =    1.300    factor for augmentation sphere                          
   RDEP   =    1.501    radius for radial grids                                 
   RDEPT  =    1.300    core radius for aug-charge                              
                                                                                
   Atomic configuration                                                         
    4 entries                                                                   
     n  l   j            E        occ.                                          
     1  0  0.50      -273.3789   2.0000                                         
     2  0  0.50       -13.7508   2.0000                                         
     2  1  0.50        -5.2854   2.0000                                         
     3  2  1.50        -5.4423   0.0000                                         
   Description                                                                  
     l       E           TYP  RCUT    TYP  RCUT                                 
     0    -13.7508458     23  1.200                                             
     0     -8.2022199     23  1.200                                             
     1     -5.2854383     23  1.500                                             
     1     34.0145650     23  1.500                                             
     2     -5.4423304      7  1.500                                             
  local pseudopotential read in
  partial core-charges read in
  partial kinetic energy density read in
  atomic valenz-charges read in
  non local Contribution for L=           0  read in
    real space projection operators read in
  non local Contribution for L=           0  read in
    real space projection operators read in
  non local Contribution for L=           1  read in
    real space projection operators read in
  non local Contribution for L=           1  read in
    real space projection operators read in
    PAW grid and wavefunctions read in
 
   number of l-projection  operators is LMAX  =           4
   number of lm-projection operators is LMMAX =           8
 
 POTCAR:    PAW_PBE O 08Apr2002                   
   VRHFIN =O: s2p4                                                              
   LEXCH  = PE                                                                  
   EATOM  =   432.3788 eV,   31.7789 Ry                                         
                                                                                
   TITEL  = PAW_PBE O 08Apr2002                                                 
   LULTRA =        F    use ultrasoft PP ?                                      
   IUNSCR =        1    unscreen: 0-lin 1-nonlin 2-no                           
   RPACOR =    1.200    partial core radius                                     
   POMASS =   16.000; ZVAL   =    6.000    mass and valenz                      
   RCORE  =    1.520    outmost cutoff radius                                   
   RWIGS  =    1.550; RWIGS  =    0.820    wigner-seitz radius (au A)           
   ENMAX  =  400.000; ENMIN  =  300.000 eV                                      
   ICORE  =        2    local potential                                         
   LCOR   =        T    correct aug charges                                     
   LPAW   =        T    paw PP                                                  
   EAUG   =  605.392                                                            
   DEXC   =    0.000                                                            
   RMAX   =    1.553    core radius for proj-oper                               
   RAUG   =    1.300    factor for augmentation sphere                          
   RDEP   =    1.550    radius for radial grids                                 
   RDEPT  =    1.329    core radius for aug-charge                              
                                                                                
   Atomic configuration                                                         
    4 entries                                                                   
     n  l   j            E        occ.                                          
     1  0  0.50      -514.6923   2.0000                                         
     2  0  0.50       -23.9615   2.0000                                         
     2  1  0.50        -9.0305   4.0000                                         
     3  2  1.50        -9.5241   0.0000                                         
   Description                                                                  
     l       E           TYP  RCUT    TYP  RCUT                                 
     0    -23.9615318     23  1.200                                             
     0     -9.5240782     23  1.200                                             
     1     -9.0304911     23  1.520                                             
     1      8.1634956     23  1.520                                             
     2     -9.5240782      7  1.500                                             
  local pseudopotential read in
  partial core-charges read in
  partial kinetic energy density read in
  kinetic energy density of atom read in
  atomic valenz-charges read in
  non local Contribution for L=           0  read in
    real space projection operators read in
  non local Contribution for L=           0  read in
    real space projection operators read in
  non local Contribution for L=           1  read in
    real space projection operators read in
  non local Contribution for L=           1  read in
    real space projection operators read in
    PAW grid and wavefunctions read in
 
   number of l-projection  operators is LMAX  =           4
   number of lm-projection operators is LMMAX =           8
 
 POTCAR:    PAW_PBE N 08Apr2002                   
   VRHFIN =N: s2p3                                                              
   LEXCH  = PE                                                                  
   EATOM  =   264.5486 eV,   19.4438 Ry                                         
                                                                                
   TITEL  = PAW_PBE N 08Apr2002                                                 
   LULTRA =        F    use ultrasoft PP ?                                      
   IUNSCR =        1    unscreen: 0-lin 1-nonlin 2-no                           
   RPACOR =    1.200    partial core radius                                     
   POMASS =   14.001; ZVAL   =    5.000    mass and valenz                      
   RCORE  =    1.500    outmost cutoff radius                                   
   RWIGS  =    1.400; RWIGS  =    0.741    wigner-seitz radius (au A)           
   ENMAX  =  400.000; ENMIN  =  300.000 eV                                      
   ICORE  =        2    local potential                                         
   LCOR   =        T    correct aug charges                                     
   LPAW   =        T    paw PP                                                  
   EAUG   =  627.112                                                            
   DEXC   =    0.000                                                            
   RMAX   =    1.529    core radius for proj-oper                               
   RAUG   =    1.300    factor for augmentation sphere                          
   RDEP   =    1.514    radius for radial grids                                 
   RDEPT  =    1.338    core radius for aug-charge                              
                                                                                
   Atomic configuration                                                         
    4 entries                                                                   
     n  l   j            E        occ.                                          
     1  0  0.50      -384.7179   2.0000                                         
     2  0  0.50       -18.5828   2.0000                                         
     2  1  0.50        -7.0898   3.0000                                         
     3  2  1.50        -6.8029   0.0000                                         
   Description                                                                  
     l       E           TYP  RCUT    TYP  RCUT                                 
     0    -18.5828119     23  1.200                                             
     0    -13.5018863     23  1.200                                             
     1     -7.0897853     23  1.500                                             
     1      9.5240782     23  1.500                                             
     2     -6.8029130      7  1.500                                             
  local pseudopotential read in
  partial core-charges read in
  partial kinetic energy density read in
  atomic valenz-charges read in
  non local Contribution for L=           0  read in
    real space projection operators read in
  non local Contribution for L=           0  read in
    real space projection operators read in
  non local Contribution for L=           1  read in
    real space projection operators read in
  non local Contribution for L=           1  read in
    real space projection operators read in
    PAW grid and wavefunctions read in
 
   number of l-projection  operators is LMAX  =           4
   number of lm-projection operators is LMMAX =           8
 
 POTCAR:    PAW_PBE Al 04Jan2001                  
   VRHFIN =Al: s2p1                                                             
   LEXCH  = PE                                                                  
   EATOM  =    53.5387 eV,    3.9350 Ry                                         
                                                                                
   TITEL  = PAW_PBE Al 04Jan2001                                                
   LULTRA =        F    use ultrasoft PP ?                                      
   IUNSCR =        1    unscreen: 0-lin 1-nonlin 2-no                           
   RPACOR =    1.500    partial core radius                                     
   POMASS =   26.981; ZVAL   =    3.000    mass and valenz                      
   RCORE  =    1.900    outmost cutoff radius                                   
   RWIGS  =    2.650; RWIGS  =    1.402    wigner-seitz radius (au A)           
   ENMAX  =  240.300; ENMIN  =  180.225 eV                                      
   ICORE  =        2    local potential                                         
   LCOR   =        T    correct aug charges                                     
   LPAW   =        T    paw PP                                                  
   EAUG   =  291.052                                                            
   DEXC   =    0.000                                                            
   RMAX   =    1.939    core radius for proj-oper                               
   RAUG   =    1.300    factor for augmentation sphere                          
   RDEP   =    1.966    radius for radial grids                                 
   RDEPT  =    1.856    core radius for aug-charge                              
                                                                                
   Atomic configuration                                                         
    6 entries                                                                   
     n  l   j            E        occ.                                          
     1  0  0.50     -1511.1048   2.0000                                         
     2  0  0.50      -108.1629   2.0000                                         
     2  1  1.50       -69.6402   6.0000                                         
     3  0  0.50        -7.7528   2.0000                                         
     3  1  1.50        -2.7121   1.0000                                         
     3  2  2.50        -2.7212   0.0000                                         
   Description                                                                  
     l       E           TYP  RCUT    TYP  RCUT                                 
     0     -7.7528455     23  1.900                                             
     0     -3.3096929     23  1.900                                             
     1     -2.7120682     23  1.900                                             
     1     13.6058260     23  1.900                                             
     2     -2.7211652      7  1.900                                             
  local pseudopotential read in
  partial core-charges read in
  partial kinetic energy density read in
  atomic valenz-charges read in
  non local Contribution for L=           0  read in
    real space projection operators read in
  non local Contribution for L=           0  read in
    real space projection operators read in
  non local Contribution for L=           1  read in
    real space projection operators read in
  non local Contribution for L=           1  read in
    real space projection operators read in
    PAW grid and wavefunctions read in
 
   number of l-projection  operators is LMAX  =           4
   number of lm-projection operators is LMMAX =           8
 

 ----------------------------------------------------------------------------- 
|                                                                             |
|  ADVICE TO THIS USER RUNNING 'VASP/VAMP'   (HEAR YOUR MASTER'S VOICE ...):  |
|                                                                             |
|      You have a (more or less) 'large supercell' and for larger cells       |
|      it might be more efficient to use real space projection opertators     |
|      So try LREAL= Auto  in the INCAR   file.                               |
|      Mind:          For very  accurate calculation you might also keep the  |
|      reciprocal projection scheme          (i.e. LREAL=.FALSE.)             |
|                                                                             |
 ----------------------------------------------------------------------------- 

  PAW_PBE H 15Jun2001                   :
 energy of atom  1       EATOM=  -12.4884
 kinetic energy error for atom=    0.0020 (will be added to EATOM!!)
  PAW_PBE C 08Apr2002                   :
 energy of atom  2       EATOM= -147.1560
 kinetic energy error for atom=    0.0076 (will be added to EATOM!!)
  PAW_PBE O 08Apr2002                   :
 energy of atom  3       EATOM= -432.3788
 kinetic energy error for atom=    0.0224 (will be added to EATOM!!)
  PAW_PBE N 08Apr2002                   :
 energy of atom  4       EATOM= -264.5486
 kinetic energy error for atom=    0.0138 (will be added to EATOM!!)
  PAW_PBE Al 04Jan2001                  :
 energy of atom  5       EATOM=  -53.5387
 kinetic energy error for atom=    0.0003 (will be added to EATOM!!)
 
 
 POSCAR: XYZ file                                
  positions in cartesian coordinates
  No initial velocities read in
 exchange correlation table for  LEXCH =        8
   RHO(1)=    0.500       N(1)  =     2000
   RHO(2)=  100.500       N(2)  =     4000
 


--------------------------------------------------------------------------------------------------------


 ion  position               nearest neighbor table
   1  0.556  0.263  0.572-  60 1.09
   2  0.434  0.515  0.605-  61 1.09
   3  0.531  0.330  0.626-  62 1.09
   4  0.408  0.359  0.592-  63 1.09
   5  0.684  0.785  0.698-
   6  0.306  0.662  0.680-  68 1.09
   7  0.414  0.789  0.583-  69 1.09
   8  0.219  0.768  0.575-  70 1.09
   9  0.593  0.318  0.854- 148 1.02
  10  0.381  0.703  0.813-  72 1.09
  11  0.545  0.713  0.632-  73 1.08
  12  0.743  0.368  0.762-  83 1.09
  13  0.267  0.609  0.752-  84 1.10
  14  0.403  0.677  0.639-  85 1.09
  15  0.697  0.206  0.839-  86 1.09
  16  0.394  0.546  0.689-  87 1.09
  17  0.768  0.243  0.878-  88 1.09
  18  0.369  0.468  0.673-  89 1.09
  19  0.713  0.219  0.616-  90 1.09
  20  0.273  0.729  0.630- 147 1.02
  21  0.395  0.274  0.632- 155 1.02
  22  0.792  0.685  0.611-
  23  0.630  0.353  0.631-  94 1.09
  24  0.359  0.790  0.798-  95 1.09
  25  0.562  0.779  0.691-  96 1.09
  26  0.587  0.366  0.698- 154 1.03
  27  0.437  0.586  0.750-  98 1.10
  28  0.312  0.790  0.561-
  29  0.574  0.243  0.822-  97 1.10
  30  0.439  0.650  0.759-  98 1.10
  31  0.492  0.374  0.730- 152 1.04
  32  0.424  0.626  0.700-  98 1.10
  33  0.781  0.264  0.745-  99 1.11
  34  0.218  0.541  0.747- 100 1.09
  35  0.335  0.617  0.632- 101 1.09
  36  0.657  0.759  0.759- 113 1.10
  37  0.389  0.631  0.833- 114 1.10
  38  0.489  0.625  0.555- 115 1.10
  39  0.628  0.774  0.816- 113 1.10
  40  0.325  0.615  0.826- 114 1.10
  41  0.539  0.662  0.577- 115 1.10
  42  0.592  0.770  0.762- 113 1.10
  43  0.372  0.570  0.818- 114 1.10
  44  0.491  0.644  0.618- 115 1.10
  45  0.590  0.578  0.701- 116 1.09
  46  0.698  0.474  0.649- 117 1.09
  47  0.764  0.526  0.785- 121 1.09
  48  0.633  0.455  0.729- 122 1.09
  49  0.321  0.471  0.851- 174 1.81 165 1.99
  50  0.542  0.566  0.625- 124 1.09
  51  0.649  0.462  0.572- 125 1.09
  52  0.714  0.606  0.687- 126 1.10
  53  0.738  0.550  0.627- 149 1.02
  54  0.754  0.580  0.729- 126 1.10
  55  0.197  0.426  0.870-
  56  0.629  0.561  0.777- 130 1.10
  57  0.688  0.586  0.789- 130 1.10
  58  0.650  0.612  0.742- 130 1.10
  59  0.717  0.390  0.848- 128 1.10
  60  0.551  0.300  0.556-   1 1.09  62 1.40
  61  0.418  0.484  0.584-   2 1.09  64 1.39
  62  0.537  0.338  0.587-   3 1.09  65 1.39  60 1.40
  63  0.404  0.396  0.577-   4 1.09  64 1.39
  64  0.423  0.437  0.602-  61 1.39  63 1.39 132 1.44
  65  0.531  0.385  0.568-  62 1.39 131 1.41
  66  0.499  0.420  0.642- 133 1.23 131 1.35 132 1.36
  67  0.670  0.227  0.682-  90 1.39  74 1.41
  68  0.320  0.689  0.705-   6 1.09  75 1.40  91 1.41
  69  0.447  0.787  0.607-   7 1.09  76 1.41
  70  0.225  0.735  0.553-   8 1.09  93 1.40
  71  0.624  0.302  0.691-  94 1.40  74 1.42 154 1.44
  72  0.361  0.712  0.780-  10 1.09  95 1.40  75 1.41
  73  0.519  0.743  0.634-  11 1.08  96 1.40  76 1.41
  74  0.639  0.256  0.712-  67 1.41  71 1.42  77 1.56
  75  0.346  0.674  0.747-  68 1.40  72 1.41  78 1.55
  76  0.477  0.745  0.604-  73 1.41  69 1.41  79 1.55
  77  0.634  0.244  0.768-  80 1.54  74 1.56  97 1.59
  78  0.365  0.621  0.756-  98 1.55 114 1.55  75 1.55  81 1.56
  79  0.469  0.703  0.566-  82 1.54  76 1.55 115 1.56
  80  0.684  0.263  0.787-  86 1.38 151 1.40  77 1.54
  81  0.335  0.578  0.731-  84 1.37  87 1.46  78 1.56
  82  0.416  0.682  0.561-  85 1.41  79 1.54
  83  0.741  0.328  0.765-  12 1.09 151 1.33  99 1.50
  84  0.285  0.575  0.738-  13 1.10  81 1.37 100 1.46
  85  0.391  0.666  0.603-  14 1.09 101 1.40  82 1.41
  86  0.713  0.239  0.822-  15 1.09  80 1.38  88 1.42
  87  0.360  0.537  0.708-  16 1.09  89 1.40  81 1.46
  88  0.758  0.256  0.842-  17 1.09 102 1.38  86 1.42
  89  0.346  0.488  0.699-  18 1.09  87 1.40 146 1.40
  90  0.687  0.241  0.636-  19 1.09  67 1.39 105 1.40
  91  0.312  0.739  0.694- 106 1.40 147 1.40  68 1.41
  92  0.457  0.232  0.640- 155 1.40 107 1.42
  93  0.214  0.689  0.574- 108 1.39  70 1.40
  94  0.640  0.317  0.645-  23 1.09 105 1.39  71 1.40
  95  0.350  0.762  0.771-  24 1.09 106 1.39  72 1.40
  96  0.530  0.781  0.668-  25 1.09  73 1.40
  97  0.587  0.268  0.793-  29 1.10 148 1.51  77 1.59 161 1.95
  98  0.419  0.621  0.740-  30 1.10  32 1.10  27 1.10  78 1.55
  99  0.788  0.299  0.764-  33 1.11  83 1.50 102 1.53
 100  0.254  0.532  0.731-  34 1.09  84 1.46 103 1.53 164 2.06
 101  0.351  0.633  0.599-  35 1.09 104 1.39  85 1.40
 102  0.791  0.288  0.819-  88 1.38  99 1.53
 103  0.269  0.481  0.748- 146 1.46 100 1.53 165 1.94 166 2.16
 104  0.335  0.618  0.553- 101 1.39 140 1.43
 105  0.672  0.287  0.618-  94 1.39  90 1.40 134 1.41
 106  0.327  0.775  0.728-  95 1.39  91 1.40
 107  0.498  0.227  0.672- 136 1.40  92 1.42
 108  0.224  0.647  0.546-  93 1.39 137 1.43
 109  0.694  0.347  0.556- 141 1.22 134 1.37
 110  0.281  0.241  0.678- 153 1.28 142 1.30 135 1.47
 111  0.659  0.683  0.615- 139 1.19 143 1.19
 112  0.261  0.573  0.577- 144 1.25 137 1.34 140 1.35
 113  0.628  0.782  0.777-  36 1.10  39 1.10  42 1.10
 114  0.363  0.609  0.812-  40 1.10  43 1.10  37 1.10  78 1.55
 115  0.499  0.656  0.580-  41 1.10  38 1.10  44 1.10  79 1.56
 116  0.605  0.554  0.673-  45 1.09 124 1.40 118 1.40
 117  0.664  0.495  0.643-  46 1.09 125 1.40 118 1.41
 118  0.650  0.529  0.680- 116 1.40 117 1.41 119 1.52
 119  0.684  0.541  0.722- 118 1.52 120 1.54 130 1.54 126 1.58
 120  0.698  0.496  0.752- 121 1.40 122 1.41 119 1.54
 121  0.739  0.495  0.784-  47 1.09 120 1.40 127 1.42
 122  0.665  0.456  0.755-  48 1.09 123 1.41 120 1.41
 123  0.670  0.418  0.790- 122 1.41 128 1.41 170 1.94
 124  0.577  0.547  0.630-  50 1.09 129 1.39 116 1.40
 125  0.637  0.489  0.600-  51 1.09 129 1.39 117 1.40
 126  0.729  0.571  0.699-  54 1.10  52 1.10 149 1.45 119 1.58
 127  0.748  0.456  0.817- 150 1.41 128 1.41 121 1.42
 128  0.711  0.419  0.822-  59 1.10 123 1.41 127 1.41
 129  0.595  0.517  0.593- 124 1.39 125 1.39 145 1.42
 130  0.661  0.577  0.759-  56 1.10  57 1.10  58 1.10 119 1.54
 131  0.515  0.426  0.595-  66 1.35  65 1.41
 132  0.450  0.429  0.647-  66 1.36  64 1.44
 133  0.525  0.409  0.678-  66 1.23
 134  0.695  0.301  0.574- 109 1.37 105 1.41
 135  0.318  0.233  0.716- 110 1.47 169 2.16
 136  0.501  0.264  0.708- 107 1.40 162 1.90 161 1.93
 137  0.221  0.601  0.572- 112 1.34 108 1.43
 138  0.234  0.307  0.847- 168 1.75
 139  0.621  0.690  0.594- 111 1.19
 140  0.299  0.580  0.546- 112 1.35 104 1.43
 141  0.664  0.380  0.564- 109 1.22
 142  0.265  0.287  0.676- 110 1.30 167 1.84
 143  0.697  0.676  0.636- 111 1.19
 144  0.261  0.537  0.605- 112 1.25 164 2.00
 145  0.565  0.511  0.551- 129 1.42
 146  0.309  0.459  0.720-  89 1.40 103 1.46 163 1.98 166 2.08
 147  0.292  0.755  0.649-  20 1.02  91 1.40
 148  0.593  0.319  0.816-   9 1.02  97 1.51 170 1.83 161 2.30
 149  0.757  0.549  0.659-  53 1.02 126 1.45
 150  0.793  0.453  0.844- 127 1.41
 151  0.695  0.311  0.772-  83 1.33  80 1.40 170 2.01
 152  0.482  0.344  0.752-  31 1.04 161 1.93 171 1.94 162 1.98
 153  0.267  0.207  0.648- 110 1.28
 154  0.596  0.337  0.720-  26 1.03  71 1.44 161 1.98 170 2.01
 155  0.429  0.274  0.649-  21 1.02  92 1.40 162 1.89
 156  0.342  0.285  0.823- 168 1.82 175 1.85 169 1.87
 157  0.296  0.393  0.813- 168 1.82 165 1.86 163 1.93 174 1.97
 158  0.544  0.619  0.843- 160 1.12
 159  0.392  0.415  0.775- 163 1.91 172 1.92 171 1.93 174 2.09
 160  0.533  0.599  0.810- 158 1.12
 161  0.540  0.303  0.752- 136 1.93 152 1.93  97 1.95 154 1.98 148 2.30 162 2.91 170 3.08
 162  0.440  0.298  0.714- 155 1.89 136 1.90 152 1.98 169 2.60 161 2.91 171 3.16
 163  0.329  0.396  0.750- 159 1.91 157 1.93 146 1.98 174 2.72 167 2.77 169 2.91 168 2.91 166 2.92
                           165 2.95
 164  0.222  0.515  0.664- 144 2.00 100 2.06 166 2.53
 165  0.261  0.453  0.813- 157 1.86 103 1.94  49 1.99 174 2.91 163 2.95 166 3.36
 166  0.244  0.429  0.693- 146 2.08 103 2.16 164 2.53 167 2.71 163 2.92 165 3.36
 167  0.253  0.334  0.722- 142 1.84 166 2.71 163 2.77 168 2.88 169 3.10
 168  0.289  0.327  0.822- 138 1.75 156 1.82 157 1.82 169 2.69 167 2.88 163 2.91 175 2.91 174 3.08

 169  0.354  0.292  0.755- 156 1.87 135 2.16 162 2.60 168 2.69 163 2.91 167 3.10 175 3.14
 170  0.637  0.355  0.779- 148 1.83 123 1.94 151 2.01 154 2.01 161 3.08
 171  0.441  0.372  0.804- 159 1.93 152 1.94 173 2.64 175 2.68 174 2.79 172 3.02 162 3.16
 172  0.426  0.475  0.765- 159 1.92 171 3.02 174 3.28
 173  0.435  0.383  0.900- 175 2.49 171 2.64 174 2.75
 174  0.357  0.416  0.844-  49 1.81 157 1.97 159 2.09 163 2.72 173 2.75 171 2.79 165 2.91 175 2.91
                           168 3.08 172 3.28
 175  0.387  0.315  0.864- 156 1.85 173 2.49 171 2.68 168 2.91 174 2.91 169 3.14
 

IMPORTANT INFORMATION: All symmetrisations will be switched off!
NOSYMM: (Re-)initialisation of all symmetry stuff for point group C_1.

 
 
 KPOINTS: kptsfl                                  

Automatic generation of k-mesh.
Space group operators:
 irot       det(A)        alpha          n_x          n_y          n_z        tau_x        tau_y        tau_z
    1     1.000000     0.000000     1.000000     0.000000     0.000000     0.000000     0.000000     0.000000
 
 Subroutine IBZKPT returns following result:
 ===========================================
 
 Found      8 irreducible k-points:
 
 Following reciprocal coordinates:
            Coordinates               Weight
  0.000000  0.000000  0.000000      1.000000
  0.500000  0.000000  0.000000      1.000000
  0.000000  0.500000  0.000000      1.000000
  0.500000  0.500000  0.000000      1.000000
  0.000000  0.000000  0.500000      1.000000
  0.500000  0.000000  0.500000      1.000000
  0.000000  0.500000  0.500000      1.000000
  0.500000  0.500000  0.500000      1.000000
 
 Following cartesian coordinates:
            Coordinates               Weight
  0.000000  0.000000  0.000000      1.000000
  0.018412  0.000000  0.000000      1.000000
  0.000000  0.018412  0.000000      1.000000
  0.018412  0.018412  0.000000      1.000000
  0.000000  0.000000  0.018412      1.000000
  0.018412  0.000000  0.018412      1.000000
  0.000000  0.018412  0.018412      1.000000
  0.018412  0.018412  0.018412      1.000000
 
 TETIRR: Found     24 inequivalent tetrahedra from       48


--------------------------------------------------------------------------------------------------------




 Dimension of arrays:
   k-points           NKPTS =      8   k-points in BZ     NKDIM =      8   number of bands    NBANDS=    528
   number of dos      NEDOS =   3001   number of ions     NIONS =    175
   non local maximal  LDIM  =      4   non local SUM 2l+1 LMDIM =      8
   total plane-waves  NPLWV = ******
   max r-space proj   IRMAX =      1   max aug-charges    IRDMAX=  15744
   dimension x,y,z NGX =   200 NGY =  200 NGZ =  200
   dimension x,y,z NGXF=   400 NGYF=  400 NGZF=  400
   support grid    NGXF=   400 NGYF=  400 NGZF=  400
   ions per type =              59  71  15  15  15
   NGX,Y,Z   is equivalent  to a cutoff of  12.24, 12.24, 12.24 a.u.
   NGXF,Y,Z  is equivalent  to a cutoff of  24.49, 24.49, 24.49 a.u.

 SYSTEM =  VASPCALC                                
 POSCAR =  XYZ file                                

 Startparameter for this run:
   NWRITE =      2    write-flag & timer
   PREC   = accura    normal or accurate (medium, high low for compatibility)
   ISTART =      0    job   : 0-new  1-cont  2-samecut
   ICHARG =      2    charge: 1-file 2-atom 10-const
   ISPIN  =      1    spin polarized calculation?
   LNONCOLLINEAR =      F non collinear calculations
   LSORBIT =      F    spin-orbit coupling
   INIWAV =      1    electr: 0-lowe 1-rand  2-diag
   LASPH  =      F    aspherical Exc in radial PAW
   METAGGA=      F    non-selfconsistent MetaGGA calc.

 Electronic Relaxation 1
   ENCUT  =  500.0 eV  36.75 Ry    6.06 a.u.  49.51 49.51 49.51*2*pi/ulx,y,z
   ENINI  =  500.0     initial cutoff
   ENAUG  =  644.9 eV  augmentation charge cutoff
   NELM   =    200;   NELMIN=  5; NELMDL= -5     # of ELM steps 
   EDIFF  = 0.1E-04   stopping-criterion for ELM
   LREAL  =      F    real-space projection
   NLSPLINE    = F    spline interpolate recip. space projectors
   LCOMPAT=      F    compatible to vasp.4.4
   GGA_COMPAT  = T    GGA compatible to vasp.4.4-vasp.4.6
   LMAXPAW     = -100 max onsite density
   LMAXMIX     =    2 max onsite mixed and CHGCAR
   VOSKOWN=      0    Vosko Wilk Nusair interpolation
   ROPT   =    0.00000   0.00000   0.00000   0.00000
   ROPT   =    0.00000
 Ionic relaxation
   EDIFFG = 0.1E-04   stopping-criterion for IOM
   NSW    =      0    number of steps for IOM
   NBLOCK =      1;   KBLOCK =      1    inner block; outer block 
   IBRION =     -1    ionic relax: 0-MD 1-quasi-New 2-CG
   NFREE  =      1    steps in history (QN), initial steepest desc. (CG)
   ISIF   =      3    stress and relaxation
   IWAVPR =     11    prediction:  0-non 1-charg 2-wave 3-comb
   ISYM   =      0    0-nonsym 1-usesym 2-fastsym
   LCORR  =      T    Harris-Foulkes like correction to forces

   POTIM  = 0.5000    time-step for ionic-motion
   TEIN   =    0.0    initial temperature
   TEBEG  =    0.0;   TEEND  =   0.0 temperature during run
   SMASS  =  -3.00    Nose mass-parameter (am)
   estimated Nose-frequenzy (Omega)   =  0.10E-29 period in steps =****** mass=  -0.169E-25a.u.
   SCALEE = 1.0000    scale energy and forces
   NPACO  =    256;   APACO  = 16.0  distance and # of slots for P.C.
   PSTRESS=    0.0 pullay stress

  Mass of Ions in am
   POMASS =   1.00 12.01 16.00 14.00 26.98
  Ionic Valenz
   ZVAL   =   1.00  4.00  6.00  5.00  3.00
  Atomic Wigner-Seitz radii
   RWIGS  =  -1.00 -1.00 -1.00 -1.00 -1.00
  virtual crystal weights 
   VCA    =   1.00  1.00  1.00  1.00  1.00
   NELECT =     553.0000    total number of electrons
   NUPDOWN=      -1.0000    fix difference up-down

 DOS related values:
   EMIN   =  10.00;   EMAX   =-10.00  energy-range for DOS
   EFERMI =   0.00
   ISMEAR =    -5;   SIGMA  =   0.15  broadening in eV -4-tet -1-fermi 0-gaus

 Electronic relaxation 2 (details)
   IALGO  =     38    algorithm
   LDIAG  =      T    sub-space diagonalisation (order eigenvalues)
   LSUBROT=      F    optimize rotation matrix (better conditioning)
   TURBO    =      0    0=normal 1=particle mesh
   IRESTART =      0    0=no restart 2=restart with 2 vectors
   NREBOOT  =      0    no. of reboots
   NMIN     =      0    reboot dimension
   EREF     =   0.00    reference energy to select bands
   IMIX   =      4    mixing-type and parameters
     AMIX     =   0.40;   BMIX     =  1.00
     AMIX_MAG =   1.60;   BMIX_MAG =  1.00
     AMIN     =   0.10
     WC   =   100.;   INIMIX=   1;  MIXPRE=   1;  MAXMIX= -45

 Intra band minimization:
   WEIMIN = 0.0000     energy-eigenvalue tresh-hold
   EBREAK =  0.47E-09  absolut break condition
   DEPER  =   0.30     relativ break condition  

   TIME   =   0.40     timestep for ELM

  volume/ion in A,a.u.               =     114.44       772.31
  Fermi-wavevector in a.u.,A,eV,Ry     =   0.494811  0.935056  3.331216  0.244837
  Thomas-Fermi vector in A             =   1.499938
 
 Write flags
   LWAVE        =      T    write WAVECAR
   LDOWNSAMPLE  =      F    k-point downsampling of WAVECAR
   LCHARG       =      F    write CHGCAR
   LVTOT        =      F    write LOCPOT, total local potential
   LVHAR        =      F    write LOCPOT, Hartree potential only
   LELF         =      F    write electronic localiz. function (ELF)
   LORBIT       =      0    0 simple, 1 ext, 2 COOP (PROOUT), +10 PAW based schemes


 Dipole corrections
   LMONO  =      F    monopole corrections only (constant potential shift)
   LDIPOL =      F    correct potential (dipole corrections)
   IDIPOL =      0    1-x, 2-y, 3-z, 4-all directions 
   EPSILON=  1.0000000 bulk dielectric constant

 Exchange correlation treatment:
   GGA     =    --    GGA type
   LEXCH   =     8    internal setting for exchange type
   VOSKOWN=      0    Vosko Wilk Nusair interpolation
   LHFCALC =     F    Hartree Fock is set to
   LHFONE  =     F    Hartree Fock one center treatment
   AEXX    =    0.0000 exact exchange contribution

 Linear response parameters
   LEPSILON=     F    determine dielectric tensor
   LRPA    =     F    only Hartree local field effects (RPA)
   LNABLA  =     F    use nabla operator in PAW spheres
   LVEL    =     F    velocity operator in full k-point grid
   LINTERFAST=   F  fast interpolation
   KINTER  =     0    interpolate to denser k-point grid
   CSHIFT  =0.1000    complex shift for real part using Kramers Kronig
   OMEGAMAX=  -1.0    maximum frequency
   DEG_THRESHOLD= 0.2000000E-02 threshold for treating states as degnerate
   RTIME   =   -0.100 relaxation time in fs
  (WPLASMAI=    0.000 imaginary part of plasma frequency in eV, 0.658/RTIME)
   DFIELD  = 0.0000000 0.0000000 0.0000000 field for delta impulse in time
 
 Orbital magnetization related:
   ORBITALMAG=     F  switch on orbital magnetization
   LCHIMAG   =     F  perturbation theory with respect to B field
   DQ        =  0.001000  dq finite difference perturbation B field
   LLRAUG    =     F  two centre corrections for induced B field



--------------------------------------------------------------------------------------------------------


 Static calculation
 charge density and potential will be updated during run
 non-spin polarized calculation
 Variant of blocked Davidson
 Davidson routine will perform the subspace rotation
 perform sub-space diagonalisation
    after iterative eigenvector-optimisation
 modified Broyden-mixing scheme, WC =      100.0
 initial mixing is a Kerker type mixing with AMIX =  0.4000 and BMIX =      1.0000
 Hartree-type preconditioning will be used
 using additional bands          251
 reciprocal scheme for non local part
 use partial core corrections
 calculate Harris-corrections to forces 
   (improved forces if not selfconsistent)
 use gradient corrections 
 use of overlap-Matrix (Vanderbilt PP)
 Fermi weights with tetrahedron method with Bloechl corrections


--------------------------------------------------------------------------------------------------------


  energy-cutoff  :      500.00
  volume of cell :    20027.78
      direct lattice vectors                 reciprocal lattice vectors
    27.156736374  0.000000000  0.000000000     0.036823276  0.000000000  0.000000000
     0.000000000 27.156736374  0.000000000     0.000000000  0.036823276  0.000000000
     0.000000000  0.000000000 27.156736374     0.000000000  0.000000000  0.036823276

  length of vectors
    27.156736374 27.156736374 27.156736374     0.036823276  0.036823276  0.036823276


 
 k-points in units of 2pi/SCALE and weight: kptsfl                                  
   0.00000000  0.00000000  0.00000000       0.125
   0.01841164  0.00000000  0.00000000       0.125
   0.00000000  0.01841164  0.00000000       0.125
   0.01841164  0.01841164  0.00000000       0.125
   0.00000000  0.00000000  0.01841164       0.125
   0.01841164  0.00000000  0.01841164       0.125
   0.00000000  0.01841164  0.01841164       0.125
   0.01841164  0.01841164  0.01841164       0.125
 
 k-points in reciprocal lattice and weights: kptsfl                                  
   0.00000000  0.00000000  0.00000000       0.125
   0.50000000  0.00000000  0.00000000       0.125
   0.00000000  0.50000000  0.00000000       0.125
   0.50000000  0.50000000  0.00000000       0.125
   0.00000000  0.00000000  0.50000000       0.125
   0.50000000  0.00000000  0.50000000       0.125
   0.00000000  0.50000000  0.50000000       0.125
   0.50000000  0.50000000  0.50000000       0.125
 
 position of ions in fractional coordinates (direct lattice) 
   0.55550408  0.26322836  0.57172495
   0.43363303  0.51499355  0.60509455
   0.53120518  0.33019039  0.62630332
   0.40839991  0.35908893  0.59210545
   0.68393964  0.78537953  0.69755256
   0.30581912  0.66155201  0.67972243
   0.41390276  0.78912073  0.58341116
   0.21898538  0.76827908  0.57473260
   0.59262121  0.31808695  0.85362625
   0.38062227  0.70299327  0.81343842
   0.54485261  0.71256256  0.63204956
   0.74287826  0.36790884  0.76155257
   0.26663876  0.60852242  0.75226754
   0.40299937  0.67706525  0.63918251
   0.69698066  0.20629886  0.83878171
   0.39443833  0.54626971  0.68852419
   0.76800644  0.24334085  0.87842119
   0.36859950  0.46757731  0.67310643
   0.71300423  0.21904302  0.61565989
   0.27292705  0.72936428  0.63015902
   0.39506581  0.27403599  0.63227636
   0.79239559  0.68544000  0.61093765
   0.62980425  0.35287243  0.63053536
   0.35946912  0.78994191  0.79833531
   0.56240219  0.77881831  0.69120646
   0.58689708  0.36635488  0.69825733
   0.43716919  0.58559328  0.74988210
   0.31216407  0.78959173  0.56109554
   0.57445520  0.24309084  0.82219094
   0.43904898  0.65043360  0.75869989
   0.49197510  0.37363708  0.73048484
   0.42367160  0.62634969  0.70008314
   0.78112173  0.26370302  0.74482232
   0.21790867  0.54088289  0.74717486
   0.33488294  0.61666590  0.63197476
   0.65651768  0.75915504  0.75949526
   0.38866371  0.63147402  0.83304417
   0.48904213  0.62542284  0.55545819
   0.62795722  0.77394617  0.81614602
   0.32548639  0.61474890  0.82599556
   0.53880990  0.66166544  0.57685143
   0.59181994  0.76975060  0.76240617
   0.37248138  0.57012314  0.81762809
   0.49063730  0.64432645  0.61808324
   0.59030062  0.57788837  0.70147645
   0.69760257  0.47350806  0.64869511
   0.76374853  0.52594733  0.78534079
   0.63349873  0.45529196  0.72899270
   0.32141447  0.47129387  0.85081297
   0.54161066  0.56625521  0.62500966
   0.64912653  0.46246439  0.57221246
   0.71376717  0.60616136  0.68704659
   0.73839092  0.54991490  0.62694836
   0.75438106  0.57996893  0.72949463
   0.19696543  0.42642987  0.87014258
   0.62865055  0.56068051  0.77714795
   0.68777847  0.58565921  0.78851831
   0.65006405  0.61222279  0.74211246
   0.71685851  0.38962975  0.84807181
   0.55095458  0.29967642  0.55565995
   0.41823134  0.48422104  0.58443666
   0.53711677  0.33783603  0.58743370
   0.40364379  0.39613426  0.57717401
   0.42328975  0.43651354  0.60191959
   0.53074968  0.38457578  0.56784040
   0.49883121  0.41975087  0.64213794
   0.66970414  0.22658588  0.68245834
   0.32018089  0.68912530  0.70499939
   0.44676754  0.78660977  0.60656673
   0.22467275  0.73494744  0.55292439
   0.62430543  0.30189759  0.69143260
   0.36055356  0.71192217  0.77993292
   0.51942652  0.74330592  0.63395405
   0.63897032  0.25624007  0.71188647
   0.34633350  0.67430979  0.74702692
   0.47735921  0.74458843  0.60376000
   0.63400286  0.24415538  0.76763725
   0.36462733  0.62075073  0.75569767
   0.46929345  0.70264900  0.56576395
   0.68375480  0.26286566  0.78741205
   0.33502880  0.57805085  0.73123050
   0.41647744  0.68230152  0.56082118
   0.74080914  0.32791066  0.76492709
   0.28507912  0.57546580  0.73819369
   0.39066029  0.66586399  0.60261416
   0.71269161  0.23911795  0.82171965
   0.36039340  0.53688240  0.70793533
   0.75761080  0.25635123  0.84179336
   0.34583789  0.48844469  0.69886136
   0.68658465  0.24115834  0.63629228
   0.31222743  0.73906577  0.69395310
   0.45663363  0.23206887  0.64024305
   0.21404810  0.68917572  0.57374465
   0.64035410  0.31704080  0.64479887
   0.34992012  0.76174814  0.77131110
   0.53002054  0.78094411  0.66767651
   0.58723950  0.26833946  0.79342818
   0.41930878  0.62056988  0.73990238
   0.78765351  0.29889759  0.76438498
   0.25374436  0.53240764  0.73080099
   0.35119200  0.63279754  0.59898406
   0.79119664  0.28750449  0.81938946
   0.26866329  0.48114371  0.74822730
   0.33548981  0.61817455  0.55251199
   0.67217904  0.28715539  0.61832356
   0.32676932  0.77494121  0.72780848
   0.49816731  0.22728369  0.67166913
   0.22405043  0.64701337  0.54623103
   0.69366318  0.34748626  0.55553007
   0.28051710  0.24129716  0.67776346
   0.65878379  0.68298763  0.61541462
   0.26121101  0.57294488  0.57676458
   0.62773919  0.78177083  0.77650714
   0.36280790  0.60892528  0.81158549
   0.49902713  0.65582192  0.58020562
   0.60467017  0.55373973  0.67287695
   0.66436952  0.49532583  0.64309907
   0.64982986  0.52949381  0.67953682
   0.68441391  0.54149854  0.72209752
   0.69778997  0.49560240  0.75247782
   0.73851317  0.49488986  0.78416497
   0.66453338  0.45587707  0.75455207
   0.66987425  0.41810745  0.78955746
   0.57667971  0.54740977  0.63005263
   0.63730443  0.48897421  0.59990180
   0.72930443  0.57063794  0.69907892
   0.74797124  0.45573458  0.81726217
   0.71087986  0.41946107  0.82154763
   0.59453237  0.51657325  0.59345251
   0.66096485  0.57728750  0.75945663
   0.51513106  0.42579836  0.59544498
   0.44986916  0.42878911  0.64704841
   0.52452505  0.40945876  0.67779696
   0.69505066  0.30068648  0.57388753
   0.31817809  0.23292723  0.71589798
   0.50073647  0.26371998  0.70824128
   0.22103499  0.60144246  0.57246614
   0.23360090  0.30717880  0.84723479
   0.62107092  0.68960255  0.59442347
   0.29946929  0.58017737  0.54577887
   0.66390377  0.37995082  0.56423354
   0.26490587  0.28661925  0.67586374
   0.69660240  0.67647243  0.63645911
   0.26109576  0.53695160  0.60548490
   0.56511939  0.51062483  0.55053973
   0.30908901  0.45936054  0.72029173
   0.29245520  0.75503969  0.64922869
   0.59343910  0.31888270  0.81608272
   0.75744098  0.54893428  0.65927744
   0.79266369  0.45308807  0.84359300
   0.69549328  0.31065306  0.77158427
   0.48174155  0.34375900  0.75213027
   0.26681036  0.20716861  0.64811736
   0.59641033  0.33695814  0.72012639
   0.42858458  0.27438617  0.64918303
   0.34166509  0.28532013  0.82262576
   0.29565516  0.39309302  0.81292474
   0.54375488  0.61938751  0.84340221
   0.39184967  0.41464090  0.77532226
   0.53256541  0.59872562  0.80954427
   0.54010022  0.30327553  0.75211143
   0.43996149  0.29797739  0.71383917
   0.32900926  0.39606282  0.75016272
   0.22210395  0.51500422  0.66412067
   0.26139694  0.45255780  0.81348920
   0.24415115  0.42917690  0.69320673
   0.25293237  0.33419162  0.72245544
   0.28941467  0.32708544  0.82189453
   0.35395446  0.29211771  0.75538015
   0.63695425  0.35531971  0.77944171
   0.44071600  0.37174544  0.80368173
   0.42645544  0.47523358  0.76507771
   0.43540645  0.38349539  0.90000004
   0.35708550  0.41554675  0.84413391
   0.38722610  0.31456551  0.86371976
 
 position of ions in cartesian coordinates  (Angst):
  15.08567795  7.14842309 15.52618378
  11.77605786 13.98554403 16.43239323
  14.42579896  8.96689338 17.00835402
  11.09080868  9.75168334 16.07965156
  18.57356838 21.32834482 18.94325103
   8.30504933 17.96559359 18.45904279
  11.24024813 21.42994373 15.84354299
   5.94692820 20.86395232 15.60786175
  16.09365790  8.63820350 23.18170307
  10.33645858 19.09100301 22.09033261
  14.79641881 19.35087362 17.16440329
  20.17414902  9.99120325 20.68128244
   7.24103840 16.52548281 20.42913125
  10.94414768 18.38688259 17.35811086
  18.92771991  5.60240370 22.77857389
  10.71165764 14.83490264 18.69806982
  20.85654853  6.60834331 23.85505261
  10.00995956 12.69787370 18.27937392
  19.36286795  5.94849345 16.71931340
   7.41180783 19.80715336 17.11306239
  10.72869817  7.44192314 17.17056232
  21.51887819 18.61431349 16.59107284
  17.10342808  9.58286359 17.12328266
   9.76200801 21.45224412 21.68018166
  15.27300798 21.15016351 18.77091148
  15.93820915  9.94900297 18.96239015
  11.87208856 15.90280241 20.36435056
   8.47735731 21.44273444 15.23752354
  15.60032847  6.60155381 22.32802262
  11.92313729 17.66365380 20.60381301
  13.36043806 10.14676369 19.83758431
  11.50553804 17.00961334 19.01197318
  21.21271692  7.16131335 20.22694348
   5.91768818 14.68861393 20.29083067
   9.09432785 16.74663327 17.16237186
  17.82887768 20.61617315 20.62541251
  10.55483789 17.14877344 22.62276095
  13.28078828 16.98444306 15.08443158
  17.05326881 21.01785200 22.16386220
   8.83914814 16.69457368 22.43134379
  14.63231829 17.96867391 15.66540215
  16.07189815 20.90391399 20.70446338
  10.11537853 15.48268371 22.20411037
  13.32410788 17.49780350 16.78512357
  16.03063831 15.69356211 19.04981115
  18.94460909 12.85893356 17.61644212
  20.74091739 14.28301305 21.32729269
  17.20375796 12.36424364 19.79706259
   8.72856805 12.79880329 23.10530357
  14.70837786 15.37764351 16.97322246
  17.62815804 12.55902358 15.53942286
  19.38358689 16.46136414 18.65794305
  20.05228762 14.93389387 17.02587124
  20.48652759 15.75006332 19.81069339
   5.34893815 11.58044350 23.63023263
  17.07209715 15.22625276 21.10480197
  18.67781867 15.90459266 21.41358386
  17.65361806 16.62597293 20.15335237
  19.46753747 10.58107244 23.03086267
  14.96212829  8.13823349 15.08991077
  11.35779820 13.14986316 15.87139217
  14.58633842  9.17452393 15.95278201
  10.96164791 10.75771359 15.67416237
  11.49516804 11.85428321 16.34617166
  14.41342910 10.44382319 15.42069197
  13.54662773 11.39906370 17.43837088
  18.18697876  6.15333301 18.53334126
   8.69506810 18.71439409 19.14548250
  12.13274827 21.36175412 16.47237270
   6.10137863 19.95877396 15.01562202
  16.95409790  8.19855314 18.77705271
   9.79145805 19.33348265 21.18043259
  14.10592919 20.18576296 17.21612296
  17.35234841  6.95864403 19.33251307
   9.40528766 18.31205321 20.28681314
  12.96351810 20.22059183 16.39615126
  17.21744865  6.63046321 20.84652250
   9.90208832 16.85756380 20.52228234
  12.74447838 19.08165358 15.36430245
  18.56854890  7.13857350 21.38354139
   9.09828873 15.69797459 19.85783384
  11.31016809 18.52908254 15.23007282
  20.11795859  8.90498339 20.77292331
   7.74181855 15.62777298 20.04693145
  10.60905840 18.08269286 16.36503400
  19.35437804  6.49366314 22.31522381
   9.78710869 14.57997381 19.22521322
  20.57423671  6.96166284 22.86036031
   9.39182844 13.26456357 18.97879373
  18.64539838  6.54907337 17.27962167
   8.47907795 20.07061418 18.84550131
  12.40067904  6.30223303 17.38691182
   5.81284789 18.71576348 15.58103233
  17.38992740  8.60979345 17.51063306
   9.50268855 20.68659329 20.94629232
  14.39362794 21.20789329 18.13191492
  15.94750839  7.28722384 21.54691999
  11.38705804 16.85265276 20.09333380
  21.39009861  8.11708317 20.75820152
   6.89086879 14.45845396 19.84616973
   9.53722849 17.18471595 16.26645228
  21.48631869  7.80768376 22.25194362
   7.29601806 13.06629297 20.31941149
   9.11080831 16.78760337 15.00442246
  18.25418908  7.79820322 16.79165004
   8.87398834 21.04487404 19.76490290
  13.52859820  6.17228315 18.24034137
   6.08447853 17.57077142 14.83385212
  18.83762811  9.43659269 15.08638369
   7.61792897  6.55284324 18.40584366
  17.89041781 18.54771502 16.71265258
   7.09363848 15.55931305 15.66304375
  17.04734772 21.23034421 21.08739967
   9.85267849 16.53642338 22.04001309
  13.55194829 17.80998297 15.75649105
  16.42086832 15.03776377 18.27314205
  18.04210800 13.45143308 17.46447189
  17.64725832 14.37932378 18.45400226
  18.58644812 14.70533315 19.60981188
  18.94969818 13.45894370 20.43484191
  20.05560751 13.43959334 21.29536123
  18.04655772 12.38013329 20.49117155
  18.19159844 11.35443380 21.44180371
  15.66073876 14.86586289 17.11017307
  17.30710827 13.27894381 16.29137491
  19.80552822 15.49666414 18.98470187
  20.31245769 12.37626387 22.19417337
  19.30517701 11.39119374 22.31055234
  16.14555885 14.02844358 16.11623345
  17.94964809 15.67724432 20.62436361
  13.98927829 11.56329372 16.17034227
  12.21697807 11.64451279 17.57172319
  14.24438840 11.11956351 18.40675335
  18.87530745  8.16566343 15.58491228
   8.64067844  6.32554346 19.44145264
  13.59836844  7.16177386 19.23352184
   6.00258892 16.33321423 15.54631191
   6.34383805  8.34197357 23.00813172
  16.86625928 18.72735476 16.14260155
   8.13260862 15.75572380 14.82157291
  18.02945974 10.31822429 15.32274154
   7.19397887  7.78364330 18.35425349
  18.91744785 18.37078332 17.28415232
   7.09050878 14.58185309 16.44299389
  15.34679818 13.86690378 14.95086236
   8.39384862 12.47473308 19.56077273
   7.94212867 20.50441387 17.63093244
  16.11586925  8.65981352 22.16214318
  20.56962513 14.90726355 17.90382361
  21.52615896 12.30439341 22.90923275
  18.88732768  8.43632327 20.95371067
  13.08252821  9.33537255 20.42540346
   7.24569854  5.62602330 17.60075238
  16.19655821  9.15068338 19.55628254
  11.63895834  7.45143282 17.62969254
   9.27850875  7.74836363 22.33983080
   8.02902927 10.67512351 22.07638293
  14.76660781 16.82054325 22.90405139
  10.64135810 11.26029371 21.05522218
  14.46273857 16.25943374 21.98458019
  14.66735920  8.23597350 20.42489196
  11.94791828  8.09209337 19.38554224
   8.93481787 10.75577362 20.37197124
   6.03161851 13.98583377 18.03535007
   7.09868791 12.28999293 22.09171171
   6.63034829 11.65504384 18.82523235
   6.86881769  9.07555373 19.61953198
   7.85955801  8.88257294 22.31997298
   9.61224807  7.93296377 20.51365970
  17.29759859  9.64932365 21.16709315
  11.96840818 10.09539284 21.82537290
  11.58113791 12.90579317 20.77701368
  11.82421808 10.41448322 24.44106371
   9.69727668 11.28489341 22.92392215
  10.51579724  8.54257261 23.45580986
 


--------------------------------------------------------------------------------------------------------


 k-point  1 :   0.0000 0.0000 0.0000  plane waves:  508563
 k-point  2 :   0.5000 0.0000 0.0000  plane waves:  508556
 k-point  3 :   0.0000 0.5000 0.0000  plane waves:  508556
 k-point  4 :   0.5000 0.5000 0.0000  plane waves:  508620
 k-point  5 :   0.0000 0.0000 0.5000  plane waves:  508556
 k-point  6 :   0.5000 0.0000 0.5000  plane waves:  508620
 k-point  7 :   0.0000 0.5000 0.5000  plane waves:  508620
 k-point  8 :   0.5000 0.5000 0.5000  plane waves:  508264

 maximum and minimum number of plane-waves per node :     42511    42298

 maximum number of plane-waves:    508620
 maximum index in each direction: 
   IXMAX=   49   IYMAX=   49   IZMAX=   49
   IXMIN=  -50   IYMIN=  -50   IZMIN=  -50


 parallel 3D FFT for wavefunctions:
    minimum data exchange during FFTs selected (reduces bandwidth)
 parallel 3D FFT for charge:
    minimum data exchange during FFTs selected (reduces bandwidth)


 total amount of memory used by VASP MPI-rank0   599056. kBytes
=======================================================================

   base      :      30000. kBytes
   nonl-proj :     227435. kBytes
   fftplans  :      36182. kBytes
   grid      :      65808. kBytes
   one-center:         46. kBytes
   wavefun   :     239585. kBytes
 
     INWAV:  cpu time    0.0000: real time    0.0000
 Broyden mixing: mesh for mixing (old mesh)
   NGX = 99   NGY = 99   NGZ = 99
  (NGX  =400   NGY  =400   NGZ  =400)
  gives a total of 970299 points

 initial charge density was supplied:
 charge density of overlapping atoms calculated
 number of electron     553.0000000 magnetization 
 keeping initial charge density in first step


--------------------------------------------------------------------------------------------------------


 Maximum index for augmentation-charges          736 (set IRDMAX)


--------------------------------------------------------------------------------------------------------


 First call to EWALD:  gamma=   0.065
 Maximum number of real-space cells 3x 3x 3
 Maximum number of reciprocal cells 3x 3x 3

    FEWALD:  cpu time    0.0081: real time    0.0082


--------------------------------------- Iteration      1(   1)  ---------------------------------------


    POTLOK:  cpu time    0.7556: real time    0.7729
    SETDIJ:  cpu time    0.0185: real time    0.0187
     EDDAV:  cpu time  627.5022: real time  632.5286
 BZINTS: Fermi energy:  3.511870;553.000000 electrons
         Band energy:***********;  BLOECHL correction: -0.002903
       DOS:  cpu time    0.0182: real time    0.0182
    --------------------------------------------
      LOOP:  cpu time  628.2945: real time  633.3385

 eigenvalue-minimisations  :  9648
 total energy-change (2. order) : 0.4704396E+04  (-0.1478512E+05)
 number of electron     553.0000000 magnetization 
 augmentation part      553.0000000 magnetization 

 Free energy of the ion-electron system (eV)
  ---------------------------------------------------
  alpha Z        PSCENC =        62.28272480
  Ewald energy   TEWEN  =    102150.67855722
  -Hartree energ DENC   =   -118799.10019011
  -exchange      EXHF   =         0.00000000
  -V(xc)+E(xc)   XCENC  =      1352.80325688
  PAW double counting   =     17096.20839613   -16702.68677364
  entropy T*S    EENTRO =         0.00000000
  eigenvalues    EBANDS =     -2896.47229867
  atomic energy  EATOM  =     22440.68271806
  Solvation  Ediel_sol  =         0.00000000
  ---------------------------------------------------
  free energy    TOTEN  =      4704.39639068 eV

  energy without entropy =     4704.39639068  energy(sigma->0) =     4704.39639068


--------------------------------------------------------------------------------------------------------




--------------------------------------- Iteration      1(   2)  ---------------------------------------


     EDDAV:  cpu time  851.0331: real time  858.6711
 BZINTS: Fermi energy: -2.875178;553.000000 electrons
         Band energy:***********;  BLOECHL correction: -0.011484
       DOS:  cpu time    0.0191: real time    0.0191
    --------------------------------------------
      LOOP:  cpu time  851.0522: real time  858.6902

 eigenvalue-minimisations  : 13992
 total energy-change (2. order) :-0.4182474E+04  (-0.3715131E+04)
 number of electron     553.0000000 magnetization 
 augmentation part      553.0000000 magnetization 

 Free energy of the ion-electron system (eV)
  ---------------------------------------------------
  alpha Z        PSCENC =        62.28272480
  Ewald energy   TEWEN  =    102150.67855722
  -Hartree energ DENC   =   -118799.10019011
  -exchange      EXHF   =         0.00000000
  -V(xc)+E(xc)   XCENC  =      1352.80325688
  PAW double counting   =     17096.20839613   -16702.68677364
  entropy T*S    EENTRO =         0.00000000
  eigenvalues    EBANDS =     -7078.94634651
  atomic energy  EATOM  =     22440.68271806
  Solvation  Ediel_sol  =         0.00000000
  ---------------------------------------------------
  free energy    TOTEN  =       521.92234284 eV

  energy without entropy =      521.92234284  energy(sigma->0) =      521.92234284


--------------------------------------------------------------------------------------------------------




--------------------------------------- Iteration      1(   3)  ---------------------------------------


     EDDAV:  cpu time  757.4211: real time  763.3942
 BZINTS: Fermi energy: -6.974959;553.000000 electrons
         Band energy:***********;  BLOECHL correction: -0.003966
       DOS:  cpu time    0.0201: real time    0.0202
    --------------------------------------------
      LOOP:  cpu time  757.4412: real time  763.4143

 eigenvalue-minimisations  : 12060
 total energy-change (2. order) :-0.1573252E+04  (-0.1522560E+04)
 number of electron     553.0000000 magnetization 
 augmentation part      553.0000000 magnetization 

 Free energy of the ion-electron system (eV)
  ---------------------------------------------------
  alpha Z        PSCENC =        62.28272480
  Ewald energy   TEWEN  =    102150.67855722
  -Hartree energ DENC   =   -118799.10019011
  -exchange      EXHF   =         0.00000000
  -V(xc)+E(xc)   XCENC  =      1352.80325688
  PAW double counting   =     17096.20839613   -16702.68677364
  entropy T*S    EENTRO =         0.00000000
  eigenvalues    EBANDS =     -8652.19859710
  atomic energy  EATOM  =     22440.68271806
  Solvation  Ediel_sol  =         0.00000000
  ---------------------------------------------------
  free energy    TOTEN  =     -1051.32990776 eV

  energy without entropy =    -1051.32990776  energy(sigma->0) =    -1051.32990776


--------------------------------------------------------------------------------------------------------




--------------------------------------- Iteration      1(   4)  ---------------------------------------


     EDDAV:  cpu time  730.3362: real time  738.0414
 BZINTS: Fermi energy: -7.283662;553.000000 electrons
         Band energy:***********;  BLOECHL correction: -0.000348
       DOS:  cpu time    0.0221: real time    0.0221
    --------------------------------------------
      LOOP:  cpu time  730.3583: real time  738.0635

 eigenvalue-minimisations  : 11592
 total energy-change (2. order) :-0.1182994E+03  (-0.1167127E+03)
 number of electron     553.0000000 magnetization 
 augmentation part      553.0000000 magnetization 

 Free energy of the ion-electron system (eV)
  ---------------------------------------------------
  alpha Z        PSCENC =        62.28272480
  Ewald energy   TEWEN  =    102150.67855722
  -Hartree energ DENC   =   -118799.10019011
  -exchange      EXHF   =         0.00000000
  -V(xc)+E(xc)   XCENC  =      1352.80325688
  PAW double counting   =     17096.20839613   -16702.68677364
  entropy T*S    EENTRO =         0.00000000
  eigenvalues    EBANDS =     -8770.49801603
  atomic energy  EATOM  =     22440.68271806
  Solvation  Ediel_sol  =         0.00000000
  ---------------------------------------------------
  free energy    TOTEN  =     -1169.62932669 eV

  energy without entropy =    -1169.62932669  energy(sigma->0) =    -1169.62932669


--------------------------------------------------------------------------------------------------------




--------------------------------------- Iteration      1(   5)  ---------------------------------------


     EDDAV:  cpu time  780.6364: real time  788.1910
 BZINTS: Fermi energy: -7.295548;553.000000 electrons
         Band energy:***********;  BLOECHL correction: -0.000003
       DOS:  cpu time    0.0227: real time    0.0228
    CHARGE:  cpu time    8.6300: real time    8.6889
    MIXING:  cpu time    0.0171: real time    0.0173
    --------------------------------------------
      LOOP:  cpu time  789.3062: real time  796.9201

 eigenvalue-minimisations  : 12636
 total energy-change (2. order) :-0.2409605E+01  (-0.2398916E+01)
 number of electron     553.0000011 magnetization 
 augmentation part       23.3722352 magnetization 

 Broyden mixing:
  rms(total) = 0.61956E+01    rms(broyden)= 0.61934E+01
  rms(prec ) = 0.67384E+01
  weight for this iteration     100.00

 Free energy of the ion-electron system (eV)
  ---------------------------------------------------
  alpha Z        PSCENC =        62.28272480
  Ewald energy   TEWEN  =    102150.67855722
  -Hartree energ DENC   =   -118799.10019011
  -exchange      EXHF   =         0.00000000
  -V(xc)+E(xc)   XCENC  =      1352.80325688
  PAW double counting   =     17096.20839613   -16702.68677364
  entropy T*S    EENTRO =         0.00000000
  eigenvalues    EBANDS =     -8772.90762112
  atomic energy  EATOM  =     22440.68271806
  Solvation  Ediel_sol  =         0.00000000
  ---------------------------------------------------
  free energy    TOTEN  =     -1172.03893177 eV

  energy without entropy =    -1172.03893177  energy(sigma->0) =    -1172.03893177


--------------------------------------------------------------------------------------------------------




--------------------------------------- Iteration      1(   6)  ---------------------------------------


    POTLOK:  cpu time    0.7207: real time    0.7381
    SETDIJ:  cpu time    0.0336: real time    0.0342
     EDDAV:  cpu time  729.2055: real time  736.2142
 BZINTS: Fermi energy: -5.324958;553.000000 electrons
         Band energy:***********;  BLOECHL correction: -0.000057
       DOS:  cpu time    0.0242: real time    0.0242
    CHARGE:  cpu time    8.5686: real time    8.5917
    MIXING:  cpu time    0.0178: real time    0.0284
    --------------------------------------------
      LOOP:  cpu time  738.5703: real time  745.6309

 eigenvalue-minimisations  : 11640
 total energy-change (2. order) : 0.6361629E+02  (-0.2863684E+02)
 number of electron     553.0000013 magnetization 
 augmentation part       18.0675973 magnetization 

 Broyden mixing:
  rms(total) = 0.48946E+01    rms(broyden)= 0.48918E+01
  rms(prec ) = 0.55904E+01
  weight for this iteration     100.00

 eigenvalues of (default mixing * dielectric matrix)
  average eigenvalue GAMMA=   0.6336
  0.6336

 Free energy of the ion-electron system (eV)
  ---------------------------------------------------
  alpha Z        PSCENC =        62.28272480
  Ewald energy   TEWEN  =    102150.67855722
  -Hartree energ DENC   =   -119922.07968172
  -exchange      EXHF   =         0.00000000
  -V(xc)+E(xc)   XCENC  =      1410.29601436
  PAW double counting   =     26202.05770599   -25820.35007363
  entropy T*S    EENTRO =         0.00000000
  eigenvalues    EBANDS =     -7631.99061072
  atomic energy  EATOM  =     22440.68271806
  Solvation  Ediel_sol  =         0.00000000
  ---------------------------------------------------
  free energy    TOTEN  =     -1108.42264564 eV

  energy without entropy =    -1108.42264564  energy(sigma->0) =    -1108.42264564


--------------------------------------------------------------------------------------------------------




--------------------------------------- Iteration      1(   7)  ---------------------------------------


    POTLOK:  cpu time    0.7068: real time    0.7253
    SETDIJ:  cpu time    0.0163: real time    0.0169
     EDDAV:  cpu time  692.5619: real time  699.0510
 BZINTS: Fermi energy: -5.872547;553.000000 electrons
         Band energy:***********;  BLOECHL correction: -0.000193
       DOS:  cpu time    0.0212: real time    0.0213
    CHARGE:  cpu time    8.6610: real time    8.6884
    MIXING:  cpu time    0.0171: real time    0.0172
    --------------------------------------------
      LOOP:  cpu time  701.9843: real time  708.5200

 eigenvalue-minimisations  : 10908
 total energy-change (2. order) : 0.3672801E+02  (-0.1102837E+02)
 number of electron     553.0000012 magnetization 
 augmentation part       18.9969289 magnetization 

 Broyden mixing:
  rms(total) = 0.38543E+01    rms(broyden)= 0.38520E+01
  rms(prec ) = 0.42552E+01
  weight for this iteration     100.00

 eigenvalues of (default mixing * dielectric matrix)
  average eigenvalue GAMMA=   0.5904
  0.7743  0.4066

 Free energy of the ion-electron system (eV)
  ---------------------------------------------------
  alpha Z        PSCENC =        62.28272480
  Ewald energy   TEWEN  =    102150.67855722
  -Hartree energ DENC   =   -119928.41292389
  -exchange      EXHF   =         0.00000000
  -V(xc)+E(xc)   XCENC  =      1412.27091593
  PAW double counting   =     29759.43404505   -29377.68173086
  entropy T*S    EENTRO =         0.00000000
  eigenvalues    EBANDS =     -7590.94894055
  atomic energy  EATOM  =     22440.68271806
  Solvation  Ediel_sol  =         0.00000000
  ---------------------------------------------------
  free energy    TOTEN  =     -1071.69463424 eV

  energy without entropy =    -1071.69463424  energy(sigma->0) =    -1071.69463424


--------------------------------------------------------------------------------------------------------




--------------------------------------- Iteration      1(   8)  ---------------------------------------


    POTLOK:  cpu time    0.7041: real time    0.7221
    SETDIJ:  cpu time    0.0184: real time    0.0188
     EDDAV:  cpu time  723.1818: real time  730.0670
 BZINTS: Fermi energy: -5.530517;553.000000 electrons
         Band energy:***********;  BLOECHL correction: -0.000004
       DOS:  cpu time    0.0237: real time    0.0238
    CHARGE:  cpu time    8.5770: real time    8.6005
    MIXING:  cpu time    0.0174: real time    0.0175
    --------------------------------------------
      LOOP:  cpu time  732.5225: real time  739.4498

 eigenvalue-minimisations  : 11508
 total energy-change (2. order) :-0.3815210E+00  (-0.6514443E+01)
 number of electron     553.0000009 magnetization 
 augmentation part       19.5094706 magnetization 

 Broyden mixing:
  rms(total) = 0.31587E+01    rms(broyden)= 0.31562E+01
  rms(prec ) = 0.35695E+01
  weight for this iteration     100.00

 eigenvalues of (default mixing * dielectric matrix)
  average eigenvalue GAMMA=   0.6366
  1.1350  0.4536  0.3212

 Free energy of the ion-electron system (eV)
  ---------------------------------------------------
  alpha Z        PSCENC =        62.28272480
  Ewald energy   TEWEN  =    102150.67855722
  -Hartree energ DENC   =   -119996.18063776
  -exchange      EXHF   =         0.00000000
  -V(xc)+E(xc)   XCENC  =      1417.48693612
  PAW double counting   =     32563.90590803   -32182.54552943
  entropy T*S    EENTRO =         0.00000000
  eigenvalues    EBANDS =     -7528.38683229
  atomic energy  EATOM  =     22440.68271806
  Solvation  Ediel_sol  =         0.00000000
  ---------------------------------------------------
  free energy    TOTEN  =     -1072.07615526 eV

  energy without entropy =    -1072.07615526  energy(sigma->0) =    -1072.07615526


--------------------------------------------------------------------------------------------------------




--------------------------------------- Iteration      1(   9)  ---------------------------------------


    POTLOK:  cpu time    0.6959: real time    0.7116
    SETDIJ:  cpu time    0.0161: real time    0.0166
     EDDAV:  cpu time  726.8686: real time  733.3356
 BZINTS: Fermi energy: -5.485078;553.000000 electrons
         Band energy:***********;  BLOECHL correction: -0.000002
       DOS:  cpu time    0.0231: real time    0.0232
    CHARGE:  cpu time    8.6042: real time    8.6285
    MIXING:  cpu time    0.0169: real time    0.0169
    --------------------------------------------
      LOOP:  cpu time  736.2248: real time  742.7324

 eigenvalue-minimisations  : 11580
 total energy-change (2. order) : 0.7690780E+01  (-0.3849947E+01)
 number of electron     553.0000009 magnetization 
 augmentation part       19.6452203 magnetization 

 Broyden mixing:
  rms(total) = 0.28816E+01    rms(broyden)= 0.28792E+01
  rms(prec ) = 0.32831E+01
  weight for this iteration     100.00

 eigenvalues of (default mixing * dielectric matrix)
  average eigenvalue GAMMA=   0.6257
  1.3843  0.4398  0.4398  0.2390

 Free energy of the ion-electron system (eV)
  ---------------------------------------------------
  alpha Z        PSCENC =        62.28272480
  Ewald energy   TEWEN  =    102150.67855722
  -Hartree energ DENC   =   -120144.10107612
  -exchange      EXHF   =         0.00000000
  -V(xc)+E(xc)   XCENC  =      1424.65288567
  PAW double counting   =     35865.85378237   -35485.35390888
  entropy T*S    EENTRO =         0.00000000
  eigenvalues    EBANDS =     -7379.08105808
  atomic energy  EATOM  =     22440.68271806
  Solvation  Ediel_sol  =         0.00000000
  ---------------------------------------------------
  free energy    TOTEN  =     -1064.38537497 eV

  energy without entropy =    -1064.38537497  energy(sigma->0) =    -1064.38537497


--------------------------------------------------------------------------------------------------------




--------------------------------------- Iteration      1(  10)  ---------------------------------------


    POTLOK:  cpu time    0.7088: real time    0.7286
    SETDIJ:  cpu time    0.0168: real time    0.0174
     EDDAV:  cpu time  706.0412: real time  713.2307
 BZINTS: Fermi energy: -5.406767;553.000000 electrons
         Band energy:***********;  BLOECHL correction: -0.000001
       DOS:  cpu time    0.0229: real time    0.0229
    CHARGE:  cpu time    8.6054: real time    8.6291
    MIXING:  cpu time    0.0277: real time    0.0277
    --------------------------------------------
      LOOP:  cpu time  715.4226: real time  722.6564

 eigenvalue-minimisations  : 11184
 total energy-change (2. order) : 0.7748363E+01  (-0.2213859E+01)
 number of electron     553.0000015 magnetization 
 augmentation part       18.9683928 magnetization 

 Broyden mixing:
  rms(total) = 0.27393E+01    rms(broyden)= 0.27368E+01
  rms(prec ) = 0.30839E+01
  weight for this iteration     100.00

 eigenvalues of (default mixing * dielectric matrix)
  average eigenvalue GAMMA=   0.6101
  1.6250  0.4899  0.3681  0.3681  0.1994

 Free energy of the ion-electron system (eV)
  ---------------------------------------------------
  alpha Z        PSCENC =        62.28272480
  Ewald energy   TEWEN  =    102150.67855722
  -Hartree energ DENC   =   -120236.93136133
  -exchange      EXHF   =         0.00000000
  -V(xc)+E(xc)   XCENC  =      1430.19182136
  PAW double counting   =     38120.03953183   -37740.12518893
  entropy T*S    EENTRO =         0.00000000
  eigenvalues    EBANDS =     -7283.45581525
  atomic energy  EATOM  =     22440.68271806
  Solvation  Ediel_sol  =         0.00000000
  ---------------------------------------------------
  free energy    TOTEN  =     -1056.63701225 eV

  energy without entropy =    -1056.63701225  energy(sigma->0) =    -1056.63701225


--------------------------------------------------------------------------------------------------------




--------------------------------------- Iteration      1(  11)  ---------------------------------------


    POTLOK:  cpu time    0.7406: real time    0.7599
    SETDIJ:  cpu time    0.0282: real time    0.0287
     EDDAV:  cpu time  706.7865: real time  712.9948
 BZINTS: Fermi energy: -5.220614;553.000000 electrons
         Band energy:***********;  BLOECHL correction: -0.000001
       DOS:  cpu time    0.0229: real time    0.0229
    CHARGE:  cpu time    8.5418: real time    8.5665
    MIXING:  cpu time    0.0178: real time    0.0179
    --------------------------------------------
      LOOP:  cpu time  716.1379: real time  722.3907

 eigenvalue-minimisations  : 11184
 total energy-change (2. order) : 0.9515347E+00  (-0.3734706E+01)
 number of electron     553.0000009 magnetization 
 augmentation part       19.0927901 magnetization 

 Broyden mixing:
  rms(total) = 0.20245E+01    rms(broyden)= 0.20213E+01
  rms(prec ) = 0.23321E+01
  weight for this iteration     100.00

 eigenvalues of (default mixing * dielectric matrix)
  average eigenvalue GAMMA=   0.6324
  1.8735  0.6670  0.4272  0.4272  0.1997  0.1997

 Free energy of the ion-electron system (eV)
  ---------------------------------------------------
  alpha Z        PSCENC =        62.28272480
  Ewald energy   TEWEN  =    102150.67855722
  -Hartree energ DENC   =   -120266.71219961
  -exchange      EXHF   =         0.00000000
  -V(xc)+E(xc)   XCENC  =      1433.35263832
  PAW double counting   =     39714.62268228   -39334.78272897
  entropy T*S    EENTRO =         0.00000000
  eigenvalues    EBANDS =     -7255.80986966
  atomic energy  EATOM  =     22440.68271806
  Solvation  Ediel_sol  =         0.00000000
  ---------------------------------------------------
  free energy    TOTEN  =     -1055.68547756 eV

  energy without entropy =    -1055.68547756  energy(sigma->0) =    -1055.68547756


--------------------------------------------------------------------------------------------------------




--------------------------------------- Iteration      1(  12)  ---------------------------------------


    POTLOK:  cpu time    0.7097: real time    0.7282
    SETDIJ:  cpu time    0.0159: real time    0.0164
     EDDAV:  cpu time  692.4441: real time  698.4657
 BZINTS: Fermi energy: -5.197200;553.000000 electrons
         Band energy:***********;  BLOECHL correction: -0.000001
       DOS:  cpu time    0.0223: real time    0.0223
    CHARGE:  cpu time    8.5437: real time    8.5687
    MIXING:  cpu time    0.0253: real time    0.0254
    --------------------------------------------
      LOOP:  cpu time  701.7611: real time  707.8267

 eigenvalue-minimisations  : 10908
 total energy-change (2. order) :-0.7437634E+00  (-0.9413914E+00)
 number of electron     553.0000012 magnetization 
 augmentation part       19.4158366 magnetization 

 Broyden mixing:
  rms(total) = 0.20686E+01    rms(broyden)= 0.20664E+01
  rms(prec ) = 0.24167E+01
  weight for this iteration     100.00

 eigenvalues of (default mixing * dielectric matrix)
  average eigenvalue GAMMA=   0.6120
  2.0356  0.7026  0.4615  0.4615  0.2343  0.2343  0.1544

 Free energy of the ion-electron system (eV)
  ---------------------------------------------------
  alpha Z        PSCENC =        62.28272480
  Ewald energy   TEWEN  =    102150.67855722
  -Hartree energ DENC   =   -120305.93019558
  -exchange      EXHF   =         0.00000000
  -V(xc)+E(xc)   XCENC  =      1436.46458685
  PAW double counting   =     41229.12020763   -40849.34568919
  entropy T*S    EENTRO =         0.00000000
  eigenvalues    EBANDS =     -7220.38215072
  atomic energy  EATOM  =     22440.68271806
  Solvation  Ediel_sol  =         0.00000000
  ---------------------------------------------------
  free energy    TOTEN  =     -1056.42924093 eV

  energy without entropy =    -1056.42924093  energy(sigma->0) =    -1056.42924093


--------------------------------------------------------------------------------------------------------




--------------------------------------- Iteration      1(  13)  ---------------------------------------


    POTLOK:  cpu time    0.6980: real time    0.7176
    SETDIJ:  cpu time    0.0231: real time    0.0235
     EDDAV:  cpu time  714.3947: real time  720.9678
 BZINTS: Fermi energy: -5.131488;553.000000 electrons
         Band energy:***********;  BLOECHL correction: -0.000001
       DOS:  cpu time    0.0225: real time    0.0226
    CHARGE:  cpu time    8.5040: real time    8.5310
    MIXING:  cpu time    0.0186: real time    0.0186
    --------------------------------------------
      LOOP:  cpu time  723.6609: real time  730.2812

 eigenvalue-minimisations  : 11328
 total energy-change (2. order) : 0.4203188E+01  (-0.7115436E+00)
 number of electron     553.0000012 magnetization 
 augmentation part       18.9311051 magnetization 

 Broyden mixing:
  rms(total) = 0.17173E+01    rms(broyden)= 0.17155E+01
  rms(prec ) = 0.20105E+01
  weight for this iteration     100.00

 eigenvalues of (default mixing * dielectric matrix)
  average eigenvalue GAMMA=   0.5832
  2.1161  0.8044  0.4302  0.4302  0.2897  0.2897  0.1528  0.1528

 Free energy of the ion-electron system (eV)
  ---------------------------------------------------
  alpha Z        PSCENC =        62.28272480
  Ewald energy   TEWEN  =    102150.67855722
  -Hartree energ DENC   =   -120363.52345663
  -exchange      EXHF   =         0.00000000
  -V(xc)+E(xc)   XCENC  =      1438.72616686
  PAW double counting   =     42198.90666761   -41819.21941612
  entropy T*S    EENTRO =         0.00000000
  eigenvalues    EBANDS =     -7160.76001516
  atomic energy  EATOM  =     22440.68271806
  Solvation  Ediel_sol  =         0.00000000
  ---------------------------------------------------
  free energy    TOTEN  =     -1052.22605338 eV

  energy without entropy =    -1052.22605338  energy(sigma->0) =    -1052.22605338


--------------------------------------------------------------------------------------------------------




--------------------------------------- Iteration      1(  14)  ---------------------------------------


    POTLOK:  cpu time    0.7071: real time    0.7257
    SETDIJ:  cpu time    0.0183: real time    0.0189
     EDDAV:  cpu time  706.0830: real time  712.7664
 BZINTS: Fermi energy: -5.185527;553.000000 electrons
         Band energy:***********;  BLOECHL correction: -0.000001
       DOS:  cpu time    0.0220: real time    0.0220
    CHARGE:  cpu time    8.5415: real time    8.5652
    MIXING:  cpu time    0.0179: real time    0.0180
[...]
   0.968E+02 0.301E+03 -.279E+03   -.977E+02 -.314E+03 0.282E+03   0.205E+01 0.138E+02 -.385E+01   -.819E-03 0.218E-02 0.132E-02
   0.252E+03 0.679E+02 -.290E+03   -.258E+03 -.689E+02 0.293E+03   0.675E+01 0.162E+01 -.445E+01   0.146E-02 -.117E-02 0.315E-03
   -.122E+03 -.269E+03 -.492E+03   0.134E+03 0.292E+03 0.529E+03   -.124E+02 -.229E+02 -.375E+02   -.273E-02 -.764E-03 -.706E-05
   0.351E+02 0.384E+02 -.219E+03   -.335E+02 -.374E+02 0.216E+03   -.111E+01 -.677E+00 0.332E+01   -.760E-03 -.430E-03 0.148E-02
   0.386E+01 -.342E+02 -.104E+03   -.159E+02 0.120E+02 0.674E+02   0.123E+02 0.227E+02 0.371E+02   -.325E-02 -.898E-03 -.689E-04
   0.501E+02 0.129E+03 -.142E+03   -.468E+02 -.130E+03 0.143E+03   -.319E+01 0.145E+01 -.140E+01   -.133E-02 0.199E-03 0.742E-03
   0.138E+03 0.128E+03 -.622E+02   -.139E+03 -.129E+03 0.615E+02   0.166E+01 0.155E+01 0.743E+00   -.959E-03 0.116E-02 0.119E-02
   0.113E+03 0.115E+03 -.706E+01   -.112E+03 -.114E+03 0.127E+02   -.250E+00 -.119E+01 -.500E+01   0.738E-03 0.404E-03 0.819E-03
   0.280E+03 0.367E+02 0.428E+02   -.277E+03 -.404E+02 -.380E+02   -.110E+01 0.372E+01 -.543E+01   0.151E-02 0.359E-04 0.155E-03
   0.214E+03 -.342E+02 -.214E+03   -.211E+03 0.308E+02 0.210E+03   -.404E+01 0.196E+01 0.651E+01   0.117E-02 -.766E-03 -.367E-03
   0.249E+03 0.109E+03 0.797E+02   -.250E+03 -.107E+03 -.786E+02   0.716E+00 -.218E+01 -.516E+00   0.130E-02 0.227E-03 0.531E-03
   0.217E+03 0.457E+02 -.215E+02   -.212E+03 -.438E+02 0.194E+02   -.324E+01 -.258E+01 0.113E+01   0.773E-03 0.845E-03 0.129E-02
   0.122E+03 0.982E+02 -.136E+03   -.125E+03 -.996E+02 0.139E+03   0.113E+01 0.630E+00 -.136E+01   -.386E-03 0.402E-04 0.848E-03
   0.546E+02 0.131E+03 -.411E+02   -.537E+02 -.130E+03 0.448E+02   -.220E+01 -.324E+01 -.452E+01   -.168E-03 0.147E-02 0.149E-02
   -.492E+02 -.338E+02 -.160E+03   0.489E+02 0.346E+02 0.163E+03   0.321E+00 -.131E+01 -.327E+01   -.157E-02 -.942E-03 0.319E-03
   -.516E+01 0.520E+02 -.227E+03   0.314E+01 -.525E+02 0.229E+03   0.231E+01 0.382E+00 -.205E+01   -.197E-02 0.593E-03 0.109E-02
   -.450E+02 -.655E+02 -.156E+03   0.470E+02 0.653E+02 0.157E+03   -.235E+01 -.208E+00 -.121E+01   -.130E-02 -.850E-03 0.183E-03
   -.934E+01 0.157E+02 -.250E+03   0.916E+01 -.156E+02 0.249E+03   0.261E+00 0.234E+00 0.178E+01   -.121E-02 -.562E-03 -.861E-03
   0.309E+02 -.140E+02 -.279E+03   -.318E+02 0.118E+02 0.279E+03   0.190E+00 0.254E+01 0.482E+00   0.881E-03 -.106E-02 -.519E-03
   -.229E+01 0.109E+03 -.250E+03   0.129E+01 -.106E+03 0.246E+03   0.365E+00 -.334E+01 0.304E+01   -.132E-03 0.161E-02 -.979E-04
 -----------------------------------------------------------------------------------------------
   -.862E+00 -.480E+02 -.268E+02   0.304E-11 0.105E-11 -.512E-12   0.102E+01 0.480E+02 0.268E+02   -.161E+00 -.120E-01 0.359E-01
 
 
 POSITION                                       TOTAL-FORCE (eV/Angst)
 -----------------------------------------------------------------------------------
     15.08568      7.14842     15.52618        -0.019571     -0.694091      0.143563
     11.77606     13.98554     16.43239         0.252848      0.323486      0.156140
     14.42580      8.96689     17.00835        -0.182121     -0.120883      0.572902
     11.09081      9.75168     16.07965         0.115226     -0.478709      0.130551
     18.57357     21.32834     18.94325        -0.373394      0.548363      0.411486
      8.30505     17.96559     18.45904        -0.036549     -0.009046     -0.060286
     11.24025     21.42994     15.84354        -0.363014      0.649237      0.078788
      5.94693     20.86395     15.60786         0.172092      0.621242     -0.282248
     16.09366      8.63820     23.18170        -0.111653      0.039567      0.023458
     10.33646     19.09100     22.09033         0.156429     -0.017649      0.034189
     14.79642     19.35087     17.16440         0.416760     -0.149670      0.083299
     20.17415      9.99120     20.68128         0.042912      0.011419      0.093057
      7.24104     16.52548     20.42913         0.004818     -0.050619     -0.001968
     10.94415     18.38688     17.35811         0.224284      0.206684      0.103573
     18.92772      5.60240     22.77857        -0.066331     -0.085541      0.005079
     10.71166     14.83490     18.69807        -0.026082     -0.012411     -0.012436
     20.85655      6.60834     23.85505        -0.183497     -0.196987      0.126398
     10.00996     12.69787     18.27937         0.048264     -0.006865      0.013455
     19.36287      5.94849     16.71931        -0.123705     -0.026121     -0.207611
      7.41181     19.80715     17.11306         0.199320     -0.801806     -0.153058
     10.72870      7.44192     17.17056        -0.154003      0.040634     -0.078618
     21.51888     18.61431     16.59107         0.008078     -0.108282      0.015123
     17.10343      9.58286     17.12328         0.023438      0.106106     -0.005184
      9.76201     21.45224     21.68018         0.131465     -0.096765      0.116681
     15.27301     21.15016     18.77091         0.073957      0.685812      0.557817
     15.93821      9.94900     18.96239        -0.018716     -0.059653     -0.006337
     11.87209     15.90280     20.36435         0.027097      0.000840      0.005867
      8.47736     21.44273     15.23752        -0.201054     -0.603762      0.504282
     15.60033      6.60155     22.32802        -0.338120     -0.121512     -0.047758
     11.92314     17.66365     20.60381         0.002311     -0.023163      0.001789
     13.36044     10.14676     19.83758         0.025642      0.009347     -0.069621
     11.50554     17.00961     19.01197        -0.003161     -0.011464      0.002576
     21.21272      7.16131     20.22694         1.142848      0.108598     -0.304188
      5.91769     14.68861     20.29083        -0.337619      0.020904      0.428421
      9.09433     16.74663     17.16237        -0.112287     -0.058201      0.277238
     17.82888     20.61617     20.62541        -0.321310      0.010680      0.272906
     10.55484     17.14877     22.62276         0.006779     -0.034210     -0.029808
     13.28079     16.98444     15.08443         0.074820     -0.066191      0.078234
     17.05327     21.01785     22.16386         0.490474      1.466714      0.299837
      8.83915     16.69457     22.43134         0.010461     -0.021526      0.052371
     14.63232     17.96867     15.66540         0.090805     -0.077238     -0.035973
     16.07190     20.90391     20.70446        -0.013932      0.848249     -0.520126
     10.11538     15.48268     22.20411         0.041754     -0.042509      0.041690
     13.32411     17.49780     16.78512        -0.192286      0.268587      0.077774
     16.03064     15.69356     19.04981         0.031655      0.061477      0.038408
     18.94461     12.85893     17.61644         0.172672      0.008314     -0.001712
     20.74092     14.28301     21.32729         0.173311      0.010042     -0.147286
     17.20376     12.36424     19.79706        -0.007868      0.058781     -0.029095
      8.72857     12.79880     23.10530         0.174923      0.052033     -0.090427
     14.70838     15.37764     16.97322         0.045698     -0.045794     -0.055734
     17.62816     12.55902     15.53942        -0.107466      0.138966     -0.065849
     19.38359     16.46136     18.65794        -0.273422     -0.043021     -0.021951
     20.05229     14.93389     17.02587        -0.509458      0.191759     -0.263289
     20.48653     15.75006     19.81069         0.166430     -0.282920      0.081773
      5.34894     11.58044     23.63023         1.478527      1.089683     -1.489088
     17.07210     15.22625     21.10480        -0.016497     -0.004869     -0.000294
     18.67782     15.90459     21.41358        -0.005410      0.043019      0.023274
     17.65362     16.62597     20.15335         0.017584     -0.044187      0.015093
     19.46754     10.58107     23.03086         0.049966      0.136609     -0.025866
     14.96213      8.13823     15.08991        -0.406593      1.235190      1.364937
     11.35780     13.14986     15.87139        -0.582928     -1.222992     -0.260925
     14.58634      9.17452     15.95278         0.306134     -1.340649     -1.543265
     10.96165     10.75771     15.67416        -0.036328      1.558016      0.140699
     11.49517     11.85428     16.34617        -1.101305      0.227157     -1.817470
     14.41343     10.44382     15.42069        -0.239889      2.359752     -0.366242
     13.54663     11.39906     17.43837        -0.747949      0.307370      1.149870
     18.18698      6.15333     18.53334        -0.467351      1.597948     -0.976809
      8.69507     18.71439     19.14548         0.469680     -1.450382      0.936419
     12.13275     21.36175     16.47237         1.466467     -2.199959     -0.048503
      6.10138     19.95877     15.01562        -1.371587     -2.300796      3.291280
     16.95410      8.19855     18.77705        -0.453867      0.421680     -0.637268
      9.79146     19.33348     21.18043         0.111346     -0.138487      0.155919
     14.10593     20.18576     17.21612         0.936486      2.133160      2.256851
     17.35235      6.95864     19.33251         0.466180     -2.195766      0.962840
      9.40529     18.31205     20.28681        -0.431532     -0.147177     -0.620074
     12.96352     20.22059     16.39615        -1.624136      1.097444     -2.280699
     17.21745      6.63046     20.84652         0.234776      3.653780     -0.666078
      9.90209     16.85756     20.52228         0.091697      0.108843      0.027612
     12.74448     19.08165     15.36430        -4.497094     -2.210468      3.354977
     18.56855      7.13857     21.38354        -0.553771     -0.859615     -0.000052
      9.09829     15.69797     19.85783        -0.117723     -0.130753      0.162699
     11.31017     18.52908     15.23007         3.467755      1.749831      2.425561
     20.11796      8.90498     20.77292         1.215191      0.607924      0.355788
      7.74182     15.62777     20.04693         0.131990      0.284253     -0.046064
     10.60906     18.08269     16.36503         0.481436      0.724667     -2.332771
     19.35438      6.49366     22.31522        -0.714939      0.051631     -0.235233
      9.78711     14.57997     19.22521        -0.127424     -0.059912      0.001530
     20.57424      6.96166     22.86036         2.270474      0.739260      0.922262
      9.39183     13.26456     18.97879         0.039799     -0.010557      0.167599
     18.64540      6.54907     17.27962         0.670544     -1.408235      0.893172
      8.47908     20.07061     18.84550        -0.849877      1.552862     -3.001028
     12.40068      6.30223     17.38691         0.285590      1.653855      2.402223
      5.81285     18.71576     15.58103         1.934026      2.265908     -4.739956
     17.38993      8.60979     17.51063         0.099899     -0.149619      0.250178
      9.50269     20.68659     20.94629        -0.866491      0.851288     -0.425119
     14.39363     21.20789     18.13191        -1.057378     -2.675209     -2.681111
     15.94751      7.28722     21.54692         0.674768     -1.189391      0.331039
     11.38706     16.85265     20.09333        -0.011779     -0.056430     -0.063231
     21.39010      8.11708     20.75820        -2.527868     -1.793725      4.643920
      6.89087     14.45845     19.84617        -0.268562      0.458275      0.401521
      9.53723     17.18472     16.26645        -1.133394     -1.047629     -1.043846
     21.48632      7.80768     22.25194        -2.162280      0.344636     -5.237566
      7.29602     13.06629     20.31941        -0.751460      0.372597     -1.144459
      9.11081     16.78760     15.00442         0.237404      0.097963      0.221661
     18.25419      7.79820     16.79165        -0.315127      0.238897      0.488667
      8.87399     21.04487     19.76490         1.108085     -0.569159      0.943242
     13.52860      6.17228     18.24034        -0.410776      1.005421     -1.302992
      6.08448     17.57077     14.83385        -0.429299     -0.523805      1.497460
     18.83763      9.43659     15.08638        -1.574100      0.648134      0.662729
      7.61793      6.55284     18.40584         2.928672     -1.574084      2.335795
     17.89042     18.54772     16.71265         0.408601      0.001836      0.162051
      7.09364     15.55931     15.66304        -0.032708      0.467827     -1.114265
     17.04735     21.23034     21.08740         0.219940     -2.920098     -0.417635
      9.85268     16.53642     22.04001        -0.045506     -0.041384      0.027593
     13.55195     17.80998     15.75649         0.707319      0.279582     -1.834026
     16.42087     15.03776     18.27314        -0.706517      0.287360     -0.417624
     18.04211     13.45143     17.46447        -0.135623     -0.113525     -0.527066
     17.64726     14.37932     18.45400         0.278946      0.001552      0.482769
     18.58645     14.70533     19.60981        -1.147846     -0.308868     -0.339028
     18.94970     13.45894     20.43484         0.721044      0.163619      0.225796
     20.05561     13.43959     21.29536        -0.345374      1.053480     -0.969575
     18.04656     12.38013     20.49117         0.016366      0.008356      0.095038
     18.19160     11.35443     21.44180         0.340104      0.026519      0.240465
     15.66074     14.86586     17.11017         0.324945      0.835810      1.646518
     17.30711     13.27894     16.29137         1.385998     -0.501775      0.748022
     19.80553     15.49666     18.98470         1.222062      0.178475     -1.269282
     20.31246     12.37626     22.19417         3.203561      0.067261      2.211353
     19.30518     11.39119     22.31055        -0.908529     -1.128871      0.001109
     16.14556     14.02844     16.11623        -3.873693     -0.831006     -5.008706
     17.94965     15.67724     20.62436         0.044201      0.175158      0.104431
     13.98928     11.56329     16.17034         0.665118     -1.651674     -0.963443
     12.21698     11.64451     17.57172         1.658143     -0.474248      1.243555
     14.24439     11.11956     18.40675         0.078835     -0.063367     -0.042035
     18.87531      8.16566     15.58491         0.475501      0.281445     -0.709922
      8.64068      6.32554     19.44145        -1.296427      1.398635     -1.479528
     13.59837      7.16177     19.23352        -0.582959     -0.969125     -0.088411
      6.00259     16.33321     15.54631         0.875970     -0.098512      0.710285
      6.34384      8.34197     23.00813         0.906492      0.401815     -1.338470
     16.86626     18.72735     16.14260         0.824903     -0.136347      0.380708
      8.13261     15.75572     14.82157         0.028994      0.534339      0.739094
     18.02946     10.31822     15.32274         1.311007     -1.039140     -0.460529
      7.19398      7.78364     18.35425        -1.531070      2.291208      0.369178
     18.91745     18.37078     17.28415        -1.138853      0.177228     -0.565381
      7.09051     14.58185     16.44299        -0.741488     -0.326686      0.852438
     15.34680     13.86690     14.95086         2.713021      0.506049      3.486150
      8.39385     12.47473     19.56077         0.197659      0.099217     -0.465344
      7.94213     20.50441     17.63093        -0.166908      0.787429      1.633385
     16.11587      8.65981     22.16214         0.235517     -0.374749      0.344515
     20.56963     14.90726     17.90382         0.219816      0.145685      1.614363
     21.52616     12.30439     22.90923        -3.213812      0.124537     -1.826014
     18.88733      8.43632     20.95371         0.595439      0.064461     -0.315059
     13.08253      9.33537     20.42540         0.009076      0.166161      0.358574
      7.24570      5.62602     17.60075         0.395643      0.515927      0.732053
     16.19656      9.15068     19.55628        -0.128186      0.235249      0.337245
     11.63896      7.45143     17.62969         0.881803     -1.737974     -0.879563
      9.27851      7.74836     22.33983         1.202310      0.684266     -0.351541
      8.02903     10.67512     22.07638         1.019766      0.646747     -0.862603
     14.76661     16.82054     22.90405        -0.232668     -0.398605     -0.646338
     10.64136     11.26029     21.05522         0.436206      0.285213      0.404326
     14.46274     16.25943     21.98458         0.238641      0.410785      0.669545
     14.66736      8.23597     20.42489         0.116774      0.038055     -0.388209
     11.94792      8.09209     19.38554         0.496084      0.371045      0.044089
      8.93482     10.75577     20.37197         0.559582     -0.375313      0.638827
      6.03162     13.98583     18.03535         1.096146      0.026729     -0.680996
      7.09869     12.28999     22.09171        -1.091874     -1.357843      2.541822
      6.63035     11.65504     18.82523        -0.340869     -0.590502      0.583396
      6.86882      9.07555     19.61953         0.925409     -0.684924     -0.985616
      7.85956      8.88257     22.31997        -2.611271     -0.800643      1.616513
      9.61225      7.93296     20.51366        -1.315786     -2.202012     -0.832687
     17.29760      9.64932     21.16709        -0.010263     -0.600379     -0.446274
     11.96841     10.09539     21.82537         0.290846     -0.094263     -0.509237
     11.58114     12.90579     20.77701        -0.269354     -0.349634      0.020317
     11.82422     10.41448     24.44106         0.081260      0.294265     -0.032263
      9.69728     11.28489     22.92392        -0.692956      0.323128     -0.208014
     10.51580      8.54257     23.45581        -0.639217     -0.639420     -0.429809
 -----------------------------------------------------------------------------------
    total drift:                                0.001028      0.002312      0.003012


--------------------------------------------------------------------------------------------------------



  FREE ENERGIE OF THE ION-ELECTRON SYSTEM (eV)
  ---------------------------------------------------
  free  energy   TOTEN  =     -1048.73893371 eV

  energy  without entropy=    -1048.73893371  energy(sigma->0) =    -1048.73893371
 


--------------------------------------------------------------------------------------------------------


    POTLOK:  cpu time    0.7827: real time    0.8978


--------------------------------------------------------------------------------------------------------


 writing wavefunctions
     LOOP+:  cpu time47994.1682: real time48588.0433
    4ORBIT:  cpu time    0.0000: real time    0.0000
 BZINTS: Fermi energy: -4.944391;553.000000 electrons
         Band energy:***********;  BLOECHL correction: -0.000001

 total amount of memory used by VASP MPI-rank0   599056. kBytes
=======================================================================

   base      :      30000. kBytes
   nonl-proj :     227435. kBytes
   fftplans  :      36182. kBytes
   grid      :      65808. kBytes
   one-center:         46. kBytes
   wavefun   :     239585. kBytes
 
  
  
 General timing and accounting informations for this job:
 ========================================================
  
                  Total CPU time used (sec):    48287.246
                            User time (sec):    47973.013
                          System time (sec):      314.234
                         Elapsed time (sec):    48884.727
  
                   Maximum memory used (kb):      756092.
                   Average memory used (kb):           0.
  
                          Minor page faults:      2025519
                          Major page faults:           31
                 Voluntary context switches:       564734
