<?xml version="1.0" encoding="ISO-8859-1"?>
<modeling>
 <generator>
  <i name="program" type="string">vasp </i>
  <i name="version" type="string">5.4.4.18Apr17-6-g9f103f2a35  </i>
  <i name="subversion" type="string">(build Mar 26 2019 17:47:52) complex            parallel </i>
  <i name="platform" type="string">LINUX </i>
  <i name="date" type="string">2022 05 16 </i>
  <i name="time" type="string">16:59:18 </i>
 </generator>
 <incar>
  <i type="string" name="SYSTEM"> VASPCALC</i>
  <i type="string" name="PREC">accurate</i>
  <i type="int" name="IALGO">    38</i>
  <i type="int" name="ISPIN">     1</i>
  <i type="int" name="ICHARG">     2</i>
  <i type="int" name="NELM">   200</i>
  <i type="int" name="NELMDL">    -5</i>
  <i type="int" name="NELMIN">     5</i>
  <i type="int" name="IBRION">     2</i>
  <i name="EDIFF">      0.00001000</i>
  <i name="EDIFFG">      0.00001000</i>
  <i type="int" name="NSW">     0</i>
  <i type="int" name="ISIF">     3</i>
  <i type="int" name="IWAVPR">    11</i>
  <i type="int" name="ISYM">     0</i>
  <i name="ENCUT">    500.00000000</i>
  <i type="int" name="NBANDS">   528</i>
  <i type="int" name="NEDOS">  3001</i>
  <i type="logical" name="LREAL"> F  </i>
  <i type="int" name="ISMEAR">    -5</i>
  <i name="SIGMA">      0.15000000</i>
  <i type="int" name="NWRITE">     2</i>
  <i type="logical" name="LCORR"> T  </i>
  <i type="logical" name="LWAVE"> T  </i>
  <i type="logical" name="LCHARG"> F  </i>
  <v type="int" name="KPOINT_BSE">    -1     0     0     0</v>
  <i type="int" name="NELM">   200</i>
 </incar>
 <structure name="primitive_cell" >
  <crystal>
   <varray name="basis" >
    <v>      27.15673637       0.00000000       0.00000000 </v>
    <v>       0.00000000      27.15673637       0.00000000 </v>
    <v>       0.00000000       0.00000000      27.15673637 </v>
   </varray>
   <i name="volume">  20027.77616971 </i>
   <varray name="rec_basis" >
    <v>       0.03682328       0.00000000       0.00000000 </v>
    <v>       0.00000000       0.03682328       0.00000000 </v>
    <v>       0.00000000       0.00000000       0.03682328 </v>
   </varray>
  </crystal>
  <varray name="positions" >
   <v>      -0.44449592       0.26322836      -0.42827505 </v>
   <v>      -0.44904542       0.29967642      -0.44434005 </v>
   <v>      -0.46288323       0.33783603      -0.41256630 </v>
   <v>      -0.46879482       0.33019039      -0.37369668 </v>
   <v>       0.49816731       0.22728369      -0.32833087 </v>
   <v>      -0.46925032       0.38457578      -0.43215960 </v>
   <v>      -0.35964590       0.31704080      -0.35520113 </v>
   <v>       0.45663363       0.23206887      -0.35975695 </v>
   <v>      -0.32782096       0.28715539      -0.38167644 </v>
   <v>      -0.37019575       0.35287243      -0.36946464 </v>
   <v>      -0.37569457       0.30189759      -0.30856740 </v>
   <v>      -0.30494934       0.30068648      -0.42611247 </v>
   <v>      -0.49926353       0.26371998      -0.29175872 </v>
   <v>      -0.31341535       0.24115834      -0.36370772 </v>
   <v>       0.42858458       0.27438617      -0.35081697 </v>
   <v>      -0.33609623       0.37995082      -0.43576646 </v>
   <v>      -0.30633682       0.34748626      -0.44446993 </v>
   <v>      -0.33029586       0.22658588      -0.31754166 </v>
   <v>      -0.36102968       0.25624007      -0.28811353 </v>
   <v>      -0.41310292       0.36635488      -0.30174267 </v>
   <v>      -0.48486894       0.42579836      -0.40455502 </v>
   <v>      -0.28699577       0.21904302      -0.38434011 </v>
   <v>      -0.40358967       0.33695814      -0.27987361 </v>
   <v>       0.39506581       0.27403599      -0.36772364 </v>
   <v>       0.40839991       0.35908893      -0.40789455 </v>
   <v>       0.49883121       0.41975087      -0.35786206 </v>
   <v>      -0.47547495       0.40945876      -0.32220304 </v>
   <v>      -0.45989978       0.30327553      -0.24788857 </v>
   <v>       0.43996149       0.29797739      -0.28616083 </v>
   <v>       0.40364379       0.39613426      -0.42282599 </v>
   <v>       0.49197510       0.37363708      -0.26951516 </v>
   <v>       0.44986916       0.42878911      -0.35295159 </v>
   <v>       0.48174155       0.34375900      -0.24786973 </v>
   <v>      -0.36599714       0.24415538      -0.23236275 </v>
   <v>       0.42328975       0.43651354      -0.39808041 </v>
   <v>      -0.35087347       0.46246439      -0.42778754 </v>
   <v>      -0.41276050       0.26833946      -0.20657182 </v>
   <v>      -0.36304575       0.35531971      -0.22055829 </v>
   <v>      -0.36269557       0.48897421      -0.40009820 </v>
   <v>      -0.43488061      -0.48937517      -0.44946027 </v>
   <v>      -0.30450672       0.31065306      -0.22841573 </v>
   <v>      -0.31624520       0.26286566      -0.21258795 </v>
   <v>      -0.42554480       0.24309084      -0.17780906 </v>
   <v>      -0.40656090       0.31888270      -0.18391728 </v>
   <v>      -0.40546763      -0.48342675      -0.40654749 </v>
   <v>      -0.36650127       0.45529196      -0.27100730 </v>
   <v>       0.41823134       0.48422104      -0.41556334 </v>
   <v>      -0.30239743       0.47350806      -0.35130489 </v>
   <v>      -0.33563048       0.49532583      -0.35690093 </v>
   <v>       0.35395446       0.29211771      -0.24461985 </v>
   <v>      -0.25919086       0.32791066      -0.23507291 </v>
   <v>       0.31817809       0.23292723      -0.28410202 </v>
   <v>       0.44071600       0.37174544      -0.19631827 </v>
   <v>       0.43363303      -0.48500645      -0.39490545 </v>
   <v>      -0.21887827       0.26370302      -0.25517768 </v>
   <v>      -0.25712174       0.36790884      -0.23844743 </v>
   <v>      -0.33546662       0.45587707      -0.24544793 </v>
   <v>      -0.40737879       0.31808695      -0.14637375 </v>
   <v>      -0.33012575       0.41810745      -0.21044254 </v>
   <v>      -0.42332029      -0.45259023      -0.36994737 </v>
   <v>       0.36859950       0.46757731      -0.32689357 </v>
   <v>       0.28051710       0.24129716      -0.32223654 </v>
   <v>      -0.28730839       0.23911795      -0.17828035 </v>
   <v>       0.39184967       0.41464090      -0.22467774 </v>
   <v>      -0.35017014      -0.47050619      -0.32046318 </v>
   <v>      -0.21234649       0.29889759      -0.23561502 </v>
   <v>       0.26681036       0.20716861      -0.35188264 </v>
   <v>      -0.30301934       0.20629886      -0.16121829 </v>
   <v>      -0.45838934      -0.43374479      -0.37499034 </v>
   <v>       0.26490587       0.28661925      -0.32413626 </v>
   <v>      -0.39532983      -0.44626027      -0.32712305 </v>
   <v>       0.42645544       0.47523358      -0.23492229 </v>
   <v>       0.32900926       0.39606282      -0.24983728 </v>
   <v>      -0.30221003       0.49560240      -0.24752218 </v>
   <v>       0.34166509       0.28532013      -0.17737424 </v>
   <v>       0.34583789       0.48844469      -0.30113864 </v>
   <v>      -0.28912014       0.41946107      -0.17845237 </v>
   <v>      -0.24238920       0.25635123      -0.15820664 </v>
   <v>       0.38722610       0.31456551      -0.13628024 </v>
   <v>      -0.31558609      -0.45850146      -0.27790248 </v>
   <v>      -0.40969938      -0.42211163      -0.29852355 </v>
   <v>      -0.20880336       0.28750449      -0.18061054 </v>
   <v>      -0.28314149       0.38962975      -0.15192819 </v>
   <v>      -0.26160908      -0.45008510      -0.37305164 </v>
   <v>       0.25293237       0.33419162      -0.27754456 </v>
   <v>       0.39443833      -0.45373029      -0.31147581 </v>
   <v>       0.30908901       0.45936054      -0.27970827 </v>
   <v>      -0.24255902      -0.45106572      -0.34072256 </v>
   <v>       0.36039340      -0.46311760      -0.29206467 </v>
   <v>      -0.26148683       0.49488986      -0.21583503 </v>
   <v>      -0.25202876       0.45573458      -0.18273783 </v>
   <v>       0.48904213      -0.37457716      -0.44454181 </v>
   <v>      -0.37134945      -0.43931949      -0.22285205 </v>
   <v>       0.43540645       0.38349539      -0.09999996 </v>
   <v>       0.35708550       0.41554675      -0.15586609 </v>
   <v>       0.28941467       0.32708544      -0.17810547 </v>
   <v>       0.24415115       0.42917690      -0.30679327 </v>
   <v>      -0.23199356       0.24334085      -0.12157881 </v>
   <v>      -0.27069557      -0.42936206      -0.30092108 </v>
   <v>       0.29565516       0.39309302      -0.18707526 </v>
   <v>      -0.33903515      -0.42271250      -0.24054337 </v>
   <v>       0.43716919      -0.41440672      -0.25011790 </v>
   <v>       0.49063730      -0.35567355      -0.38191676 </v>
   <v>      -0.28623283      -0.39383864      -0.31295341 </v>
   <v>       0.49902713      -0.34417808      -0.41979438 </v>
   <v>      -0.23625147      -0.47405267      -0.21465921 </v>
   <v>      -0.46119010      -0.33833456      -0.42314857 </v>
   <v>      -0.34993595      -0.38777721      -0.25788754 </v>
   <v>       0.26866329       0.48114371      -0.25177270 </v>
   <v>       0.26109576      -0.46304840      -0.39451510 </v>
   <v>      -0.24561894      -0.42003107      -0.27050537 </v>
   <v>       0.42367160      -0.37365031      -0.29991686 </v>
   <v>      -0.20733631       0.45308807      -0.15640700 </v>
   <v>       0.29946929      -0.41982263      -0.45422113 </v>
   <v>      -0.31222153      -0.41434079      -0.21148169 </v>
   <v>      -0.46743459      -0.40127438      -0.19045573 </v>
   <v>       0.33502880      -0.42194915      -0.26876950 </v>
   <v>       0.41930878      -0.37943012      -0.26009762 </v>
   <v>       0.33548981      -0.38182545      -0.44748801 </v>
   <v>       0.32141447       0.47129387      -0.14918703 </v>
   <v>       0.33488294      -0.38333410      -0.36802524 </v>
   <v>       0.35119200      -0.36720246      -0.40101594 </v>
   <v>       0.26139694       0.45255780      -0.18651080 </v>
   <v>       0.23360090       0.30717880      -0.15276521 </v>
   <v>       0.26121101      -0.42705512      -0.42323542 </v>
   <v>       0.22210395      -0.48499578      -0.33587933 </v>
   <v>      -0.37892908      -0.31039745      -0.40557653 </v>
   <v>       0.37248138      -0.42987686      -0.18237191 </v>
   <v>      -0.34121621      -0.31701237      -0.38458538 </v>
   <v>       0.25374436      -0.46759236      -0.26919901 </v>
   <v>       0.39066029      -0.33413601      -0.39738584 </v>
   <v>      -0.30339760      -0.32352757      -0.36354089 </v>
   <v>       0.41647744      -0.31769848      -0.43917882 </v>
   <v>       0.36462733      -0.37924927      -0.24430233 </v>
   <v>       0.28507912      -0.42453420      -0.26180631 </v>
   <v>       0.43904898      -0.34956640      -0.24130011 </v>
   <v>       0.40299937      -0.32293475      -0.36081749 </v>
   <v>       0.46929345      -0.29735100      -0.43423605 </v>
   <v>      -0.45624512      -0.38061249      -0.15659779 </v>
   <v>      -0.45514739      -0.28743744      -0.36795044 </v>
   <v>       0.36280790      -0.39107472      -0.18841451 </v>
   <v>       0.21790867      -0.45911711      -0.25282514 </v>
   <v>       0.22103499      -0.39855754      -0.42753386 </v>
   <v>       0.38866371      -0.36852598      -0.16695583 </v>
   <v>       0.30581912      -0.33844799      -0.32027757 </v>
   <v>       0.26663876      -0.39147758      -0.24773246 </v>
   <v>      -0.48057348      -0.25669408      -0.36604595 </v>
   <v>      -0.20760441      -0.31456000      -0.38906235 </v>
   <v>       0.47735921      -0.25541157      -0.39624000 </v>
   <v>       0.44676754      -0.21339023      -0.39343327 </v>
   <v>       0.32548639      -0.38525110      -0.17400444 </v>
   <v>      -0.46997946      -0.21905589      -0.33232349 </v>
   <v>       0.34633350      -0.32569021      -0.25297308 </v>
   <v>       0.19696543       0.42642987      -0.12985742 </v>
   <v>       0.41390276      -0.21087927      -0.41658884 </v>
   <v>      -0.43759781      -0.22118169      -0.30879354 </v>
   <v>       0.32018089      -0.31087470      -0.29500061 </v>
   <v>       0.22405043      -0.35298663      -0.45376897 </v>
   <v>      -0.31606036      -0.21462047      -0.30244744 </v>
   <v>      -0.37226081      -0.21822917      -0.22349286 </v>
   <v>      -0.40818006      -0.23024940      -0.23759383 </v>
   <v>       0.38062227      -0.29700673      -0.18656158 </v>
   <v>       0.36055356      -0.28807783      -0.22006708 </v>
   <v>       0.31216407      -0.21040827      -0.43890446 </v>
   <v>      -0.34348232      -0.24084496      -0.24050474 </v>
   <v>       0.21404810      -0.31082428      -0.42625535 </v>
   <v>       0.31222743      -0.26093423      -0.30604690 </v>
   <v>       0.27292705      -0.27063572      -0.36984098 </v>
   <v>      -0.37204278      -0.22605383      -0.18385398 </v>
   <v>       0.35946912      -0.21005809      -0.20166469 </v>
   <v>       0.32676932      -0.22505879      -0.27219152 </v>
   <v>       0.29245520      -0.24496031      -0.35077131 </v>
   <v>       0.34992012      -0.23825186      -0.22868890 </v>
   <v>       0.22467275      -0.26505256      -0.44707561 </v>
   <v>       0.21898538      -0.23172092      -0.42526740 </v>
  </varray>
 </structure>
 <varray name="primitive_index" >
  <v type="int" >        1 </v>
  <v type="int" >       60 </v>
  <v type="int" >       62 </v>
  <v type="int" >        3 </v>
  <v type="int" >      107 </v>
  <v type="int" >       65 </v>
  <v type="int" >       94 </v>
  <v type="int" >       92 </v>
  <v type="int" >      105 </v>
  <v type="int" >       23 </v>
  <v type="int" >       71 </v>
  <v type="int" >      134 </v>
  <v type="int" >      136 </v>
  <v type="int" >       90 </v>
  <v type="int" >      155 </v>
  <v type="int" >      141 </v>
  <v type="int" >      109 </v>
  <v type="int" >       67 </v>
  <v type="int" >       74 </v>
  <v type="int" >       26 </v>
  <v type="int" >      131 </v>
  <v type="int" >       19 </v>
  <v type="int" >      154 </v>
  <v type="int" >       21 </v>
  <v type="int" >        4 </v>
  <v type="int" >       66 </v>
  <v type="int" >      133 </v>
  <v type="int" >      161 </v>
  <v type="int" >      162 </v>
  <v type="int" >       63 </v>
  <v type="int" >       31 </v>
  <v type="int" >      132 </v>
  <v type="int" >      152 </v>
  <v type="int" >       77 </v>
  <v type="int" >       64 </v>
  <v type="int" >       51 </v>
  <v type="int" >       97 </v>
  <v type="int" >      170 </v>
  <v type="int" >      125 </v>
  <v type="int" >      145 </v>
  <v type="int" >      151 </v>
  <v type="int" >       80 </v>
  <v type="int" >       29 </v>
  <v type="int" >      148 </v>
  <v type="int" >      129 </v>
  <v type="int" >       48 </v>
  <v type="int" >       61 </v>
  <v type="int" >       46 </v>
  <v type="int" >      117 </v>
  <v type="int" >      169 </v>
  <v type="int" >       83 </v>
  <v type="int" >      135 </v>
  <v type="int" >      171 </v>
  <v type="int" >        2 </v>
  <v type="int" >       33 </v>
  <v type="int" >       12 </v>
  <v type="int" >      122 </v>
  <v type="int" >        9 </v>
  <v type="int" >      123 </v>
  <v type="int" >      124 </v>
  <v type="int" >       18 </v>
  <v type="int" >      110 </v>
  <v type="int" >       86 </v>
  <v type="int" >      159 </v>
  <v type="int" >      118 </v>
  <v type="int" >       99 </v>
  <v type="int" >      153 </v>
  <v type="int" >       15 </v>
  <v type="int" >       50 </v>
  <v type="int" >      142 </v>
  <v type="int" >      116 </v>
  <v type="int" >      172 </v>
  <v type="int" >      163 </v>
  <v type="int" >      120 </v>
  <v type="int" >      156 </v>
  <v type="int" >       89 </v>
  <v type="int" >      128 </v>
  <v type="int" >       88 </v>
  <v type="int" >      175 </v>
  <v type="int" >      119 </v>
  <v type="int" >       45 </v>
  <v type="int" >      102 </v>
  <v type="int" >       59 </v>
  <v type="int" >       53 </v>
  <v type="int" >      167 </v>
  <v type="int" >       16 </v>
  <v type="int" >      146 </v>
  <v type="int" >      149 </v>
  <v type="int" >       87 </v>
  <v type="int" >      121 </v>
  <v type="int" >      127 </v>
  <v type="int" >       38 </v>
  <v type="int" >       56 </v>
  <v type="int" >      173 </v>
  <v type="int" >      174 </v>
  <v type="int" >      168 </v>
  <v type="int" >      166 </v>
  <v type="int" >       17 </v>
  <v type="int" >      126 </v>
  <v type="int" >      157 </v>
  <v type="int" >      130 </v>
  <v type="int" >       27 </v>
  <v type="int" >       44 </v>
  <v type="int" >       52 </v>
  <v type="int" >      115 </v>
  <v type="int" >       47 </v>
  <v type="int" >       41 </v>
  <v type="int" >       58 </v>
  <v type="int" >      103 </v>
  <v type="int" >      144 </v>
  <v type="int" >       54 </v>
  <v type="int" >       32 </v>
  <v type="int" >      150 </v>
  <v type="int" >      140 </v>
  <v type="int" >       57 </v>
  <v type="int" >      160 </v>
  <v type="int" >       81 </v>
  <v type="int" >       98 </v>
  <v type="int" >      104 </v>
  <v type="int" >       49 </v>
  <v type="int" >       35 </v>
  <v type="int" >      101 </v>
  <v type="int" >      165 </v>
  <v type="int" >      138 </v>
  <v type="int" >      112 </v>
  <v type="int" >      164 </v>
  <v type="int" >      139 </v>
  <v type="int" >       43 </v>
  <v type="int" >      111 </v>
  <v type="int" >      100 </v>
  <v type="int" >       85 </v>
  <v type="int" >      143 </v>
  <v type="int" >       82 </v>
  <v type="int" >       78 </v>
  <v type="int" >       84 </v>
  <v type="int" >       30 </v>
  <v type="int" >       14 </v>
  <v type="int" >       79 </v>
  <v type="int" >      158 </v>
  <v type="int" >       11 </v>
  <v type="int" >      114 </v>
  <v type="int" >       34 </v>
  <v type="int" >      137 </v>
  <v type="int" >       37 </v>
  <v type="int" >        6 </v>
  <v type="int" >       13 </v>
  <v type="int" >       73 </v>
  <v type="int" >       22 </v>
  <v type="int" >       76 </v>
  <v type="int" >       69 </v>
  <v type="int" >       40 </v>
  <v type="int" >       96 </v>
  <v type="int" >       75 </v>
  <v type="int" >       55 </v>
  <v type="int" >        7 </v>
  <v type="int" >       25 </v>
  <v type="int" >       68 </v>
  <v type="int" >      108 </v>
  <v type="int" >        5 </v>
  <v type="int" >      113 </v>
  <v type="int" >       42 </v>
  <v type="int" >       10 </v>
  <v type="int" >       72 </v>
  <v type="int" >       28 </v>
  <v type="int" >       36 </v>
  <v type="int" >       93 </v>
  <v type="int" >       91 </v>
  <v type="int" >       20 </v>
  <v type="int" >       39 </v>
  <v type="int" >       24 </v>
  <v type="int" >      106 </v>
  <v type="int" >      147 </v>
  <v type="int" >       95 </v>
  <v type="int" >       70 </v>
  <v type="int" >        8 </v>
 </varray>
 <kpoints>
  <generation param="Gamma">
   <v type="int" name="divisions">       2        2        2 </v>
   <v name="usershift">      0.00000000       0.00000000       0.00000000 </v>
   <v name="genvec1">      0.50000000       0.00000000       0.00000000 </v>
   <v name="genvec2">      0.00000000       0.50000000       0.00000000 </v>
   <v name="genvec3">      0.00000000       0.00000000       0.50000000 </v>
   <v name="shift">      0.00000000       0.00000000       0.00000000 </v>
  </generation>
  <varray name="kpointlist" >
   <v>       0.00000000       0.00000000       0.00000000 </v>
   <v>       0.50000000       0.00000000       0.00000000 </v>
   <v>       0.00000000       0.50000000       0.00000000 </v>
   <v>       0.50000000       0.50000000       0.00000000 </v>
   <v>       0.00000000       0.00000000       0.50000000 </v>
   <v>       0.50000000       0.00000000       0.50000000 </v>
   <v>       0.00000000       0.50000000       0.50000000 </v>
   <v>       0.50000000       0.50000000       0.50000000 </v>
  </varray>
  <varray name="weights" >
   <v>       0.12500000 </v>
   <v>       0.12500000 </v>
   <v>       0.12500000 </v>
   <v>       0.12500000 </v>
   <v>       0.12500000 </v>
   <v>       0.12500000 </v>
   <v>       0.12500000 </v>
   <v>       0.12500000 </v>
  </varray>
  <varray name="tetrahedronlist"  type="int" >
   <v type="int" >        2        1        2        4        5 </v>
   <v type="int" >        2        1        3        4        5 </v>
   <v type="int" >        2        3        4        5        7 </v>
   <v type="int" >        2        2        4        5        6 </v>
   <v type="int" >        2        4        5        6        8 </v>
   <v type="int" >        2        4        5        7        8 </v>
   <v type="int" >        2        1        2        3        6 </v>
   <v type="int" >        2        2        3        4        6 </v>
   <v type="int" >        2        3        4        6        8 </v>
   <v type="int" >        2        1        3        5        6 </v>
   <v type="int" >        2        3        5        6        7 </v>
   <v type="int" >        2        3        6        7        8 </v>
   <v type="int" >        2        2        3        4        7 </v>
   <v type="int" >        2        1        2        3        7 </v>
   <v type="int" >        2        1        2        5        7 </v>
   <v type="int" >        2        2        4        7        8 </v>
   <v type="int" >        2        2        6        7        8 </v>
   <v type="int" >        2        2        5        6        7 </v>
   <v type="int" >        2        1        3        4        8 </v>
   <v type="int" >        2        1        2        4        8 </v>
   <v type="int" >        2        1        2        6        8 </v>
   <v type="int" >        2        1        3        7        8 </v>
   <v type="int" >        2        1        5        7        8 </v>
   <v type="int" >        2        1        5        6        8 </v>
  </varray>
  <i name="volumeweight">      0.02083333 </i>
 </kpoints>
 <parameters>
  <separator name="general" >
   <i type="string" name="SYSTEM">VASPCALC</i>
   <i type="logical" name="LCOMPAT"> F  </i>
  </separator>
  <separator name="electronic" >
   <i type="string" name="PREC">accura</i>
   <i name="ENMAX">    500.00000000</i>
   <i name="ENAUG">    644.87300000</i>
   <i name="EDIFF">      0.00001000</i>
   <i type="int" name="IALGO">    38</i>
   <i type="int" name="IWAVPR">    11</i>
   <i type="int" name="NBANDS">   528</i>
   <i name="NELECT">    553.00000000</i>
   <i type="int" name="TURBO">     0</i>
   <i type="int" name="IRESTART">     0</i>
   <i type="int" name="NREBOOT">     0</i>
   <i type="int" name="NMIN">     0</i>
   <i name="EREF">      0.00000000</i>
   <separator name="electronic smearing" >
    <i type="int" name="ISMEAR">    -5</i>
    <i name="SIGMA">      0.15000000</i>
    <i name="KSPACING">      0.50000000</i>
    <i type="logical" name="KGAMMA"> T  </i>
   </separator>
   <separator name="electronic projectors" >
    <i type="logical" name="LREAL"> F  </i>
    <v name="ROPT">      0.00000000      0.00000000      0.00000000      0.00000000      0.00000000</v>
    <i type="int" name="LMAXPAW">  -100</i>
    <i type="int" name="LMAXMIX">     2</i>
    <i type="logical" name="NLSPLINE"> F  </i>
   </separator>
   <separator name="electronic startup" >
    <i type="int" name="ISTART">     0</i>
    <i type="int" name="ICHARG">     2</i>
    <i type="int" name="INIWAV">     1</i>
   </separator>
   <separator name="electronic spin" >
    <i type="int" name="ISPIN">     1</i>
    <i type="logical" name="LNONCOLLINEAR"> F  </i>
    <v name="MAGMOM">      1.00000000      1.00000000      1.00000000      1.00000000      1.00000000      1.00000000      1.00000000      1.00000000      1.00000000      1.00000000      1.00000000      1.00000000      1.00000000      1.00000000      1.00000000      1.00000000      1.00000000      1.00000000      1.00000000      1.00000000
      1.00000000      1.00000000      1.00000000      1.00000000      1.00000000      1.00000000      1.00000000      1.00000000      1.00000000      1.00000000      1.00000000      1.00000000      1.00000000      1.00000000      1.00000000      1.00000000      1.00000000      1.00000000      1.00000000      1.00000000
      1.00000000      1.00000000      1.00000000      1.00000000      1.00000000      1.00000000      1.00000000      1.00000000      1.00000000      1.00000000      1.00000000      1.00000000      1.00000000      1.00000000      1.00000000      1.00000000      1.00000000      1.00000000      1.00000000      1.00000000
      1.00000000      1.00000000      1.00000000      1.00000000      1.00000000      1.00000000      1.00000000      1.00000000      1.00000000      1.00000000      1.00000000      1.00000000      1.00000000      1.00000000      1.00000000      1.00000000      1.00000000      1.00000000      1.00000000      1.00000000
      1.00000000      1.00000000      1.00000000      1.00000000      1.00000000      1.00000000      1.00000000      1.00000000      1.00000000      1.00000000      1.00000000      1.00000000      1.00000000      1.00000000      1.00000000      1.00000000      1.00000000      1.00000000      1.00000000      1.00000000
      1.00000000      1.00000000      1.00000000      1.00000000      1.00000000      1.00000000      1.00000000      1.00000000      1.00000000      1.00000000      1.00000000      1.00000000      1.00000000      1.00000000      1.00000000      1.00000000      1.00000000      1.00000000      1.00000000      1.00000000
      1.00000000      1.00000000      1.00000000      1.00000000      1.00000000      1.00000000      1.00000000      1.00000000      1.00000000      1.00000000      1.00000000      1.00000000      1.00000000      1.00000000      1.00000000      1.00000000      1.00000000      1.00000000      1.00000000      1.00000000
      1.00000000      1.00000000      1.00000000      1.00000000      1.00000000      1.00000000      1.00000000      1.00000000      1.00000000      1.00000000      1.00000000      1.00000000      1.00000000      1.00000000      1.00000000      1.00000000      1.00000000      1.00000000      1.00000000      1.00000000
      1.00000000      1.00000000      1.00000000      1.00000000      1.00000000      1.00000000      1.00000000      1.00000000      1.00000000      1.00000000      1.00000000      1.00000000      1.00000000      1.00000000      1.00000000</v>
    <i name="NUPDOWN">     -1.00000000</i>
    <i type="logical" name="LSORBIT"> F  </i>
    <v name="SAXIS">      0.00000000      0.00000000      1.00000000</v>
    <i type="logical" name="LSPIRAL"> F  </i>
    <v name="QSPIRAL">      0.00000000      0.00000000      0.00000000</v>
    <i type="logical" name="LZEROZ"> F  </i>
   </separator>
   <separator name="electronic exchange-correlation" >
    <i type="logical" name="LASPH"> F  </i>
    <i type="logical" name="LMETAGGA"> F  </i>
   </separator>
   <separator name="electronic convergence" >
    <i type="int" name="NELM">   200</i>
    <i type="int" name="NELMDL">    -5</i>
    <i type="int" name="NELMIN">     5</i>
    <i name="ENINI">    500.00000000</i>
    <separator name="electronic convergence detail" >
     <i type="logical" name="LDIAG"> T  </i>
     <i type="logical" name="LSUBROT"> F  </i>
     <i name="WEIMIN">      0.00000000</i>
     <i name="EBREAK">      0.00000000</i>
     <i name="DEPER">      0.30000000</i>
     <i type="int" name="NRMM">     4</i>
     <i name="TIME">      0.40000000</i>
    </separator>
   </separator>
   <separator name="electronic mixer" >
    <i name="AMIX">      0.40000000</i>
    <i name="BMIX">      1.00000000</i>
    <i name="AMIN">      0.10000000</i>
    <i name="AMIX_MAG">      1.60000000</i>
    <i name="BMIX_MAG">      1.00000000</i>
    <separator name="electronic mixer details" >
     <i type="int" name="IMIX">     4</i>
     <i type="logical" name="MIXFIRST"> F  </i>
     <i type="int" name="MAXMIX">   -45</i>
     <i name="WC">    100.00000000</i>
     <i type="int" name="INIMIX">     1</i>
     <i type="int" name="MIXPRE">     1</i>
     <i type="int" name="MREMOVE">     5</i>
    </separator>
   </separator>
   <separator name="electronic dipolcorrection" >
    <i type="logical" name="LDIPOL"> F  </i>
    <i type="logical" name="LMONO"> F  </i>
    <i type="int" name="IDIPOL">     0</i>
    <i name="EPSILON">      1.00000000</i>
    <v name="DIPOL">   -100.00000000   -100.00000000   -100.00000000</v>
    <i name="EFIELD">      0.00000000</i>
   </separator>
  </separator>
  <separator name="grids" >
   <i type="int" name="NGX">   200</i>
   <i type="int" name="NGY">   200</i>
   <i type="int" name="NGZ">   200</i>
   <i type="int" name="NGXF">   400</i>
   <i type="int" name="NGYF">   400</i>
   <i type="int" name="NGZF">   400</i>
   <i type="logical" name="ADDGRID"> F  </i>
  </separator>
  <separator name="ionic" >
   <i type="int" name="NSW">     0</i>
   <i type="int" name="IBRION">    -1</i>
   <i type="int" name="MDALGO">     0</i>
   <i type="int" name="ISIF">     3</i>
   <i name="PSTRESS">      0.00000000</i>
   <i name="EDIFFG">      0.00001000</i>
   <i type="int" name="NFREE">     1</i>
   <i name="POTIM">      0.50000000</i>
   <i name="SMASS">     -3.00000000</i>
   <i name="SCALEE">      1.00000000</i>
  </separator>
  <separator name="ionic md" >
   <i name="TEBEG">      0.00010000</i>
   <i name="TEEND">      0.00010000</i>
   <i type="int" name="NBLOCK">     1</i>
   <i type="int" name="KBLOCK">     1</i>
   <i type="int" name="NPACO">   256</i>
   <i name="APACO">     16.00000000</i>
  </separator>
  <separator name="symmetry" >
   <i type="int" name="ISYM">     0</i>
   <i name="SYMPREC">      0.00001000</i>
  </separator>
  <separator name="dos" >
   <i type="int" name="LORBIT">     0</i>
   <v name="RWIGS">     -1.00000000     -1.00000000     -1.00000000     -1.00000000     -1.00000000</v>
   <i type="int" name="NEDOS">  3001</i>
   <i name="EMIN">     10.00000000</i>
   <i name="EMAX">    -10.00000000</i>
   <i name="EFERMI">      0.00000000</i>
  </separator>
  <separator name="writing" >
   <i type="int" name="NWRITE">     2</i>
   <i type="logical" name="LWAVE"> T  </i>
   <i type="logical" name="LDOWNSAMPLE"> F  </i>
   <i type="logical" name="LCHARG"> F  </i>
   <i type="logical" name="LPARD"> F  </i>
   <i type="logical" name="LVTOT"> F  </i>
   <i type="logical" name="LVHAR"> F  </i>
   <i type="logical" name="LELF"> F  </i>
   <i type="logical" name="LOPTICS"> F  </i>
   <v name="STM">      0.00000000      0.00000000      0.00000000      0.00000000      0.00000000      0.00000000      0.00000000</v>
  </separator>
  <separator name="performance" >
   <i type="int" name="NPAR">    12</i>
   <i type="int" name="NSIM">     4</i>
   <i type="int" name="NBLK">    -1</i>
   <i type="logical" name="LPLANE"> T  </i>
   <i type="logical" name="LSCALAPACK"> F  </i>
   <i type="logical" name="LSCAAWARE"> F  </i>
   <i type="logical" name="LSCALU"> F  </i>
   <i type="logical" name="LASYNC"> F  </i>
   <i type="logical" name="LORBITALREAL"> F  </i>
  </separator>
  <separator name="miscellaneous" >
   <i type="int" name="IDIOT">     3</i>
   <i type="int" name="ISPECIAL">     0</i>
   <i type="logical" name="LMUSIC"> F  </i>
   <v name="POMASS">      1.00000000     12.01100000     16.00000000     14.00100000     26.98100000</v>
   <v name="DARWINR">      0.00000000      0.00000000      0.00000000      0.00000000      0.00000000</v>
   <v name="DARWINV">      1.00000000      1.00000000      1.00000000      1.00000000      1.00000000</v>
   <i type="logical" name="LCORR"> T  </i>
  </separator>
  <i type="logical" name="GGA_COMPAT"> T  </i>
  <i type="logical" name="LBERRY"> F  </i>
  <i type="int" name="ICORELEVEL">     0</i>
  <i type="logical" name="LDAU"> F  </i>
  <i type="int" name="I_CONSTRAINED_M">     0</i>
  <separator name="electronic exchange-correlation" >
   <i type="string" name="GGA">--</i>
   <i type="int" name="VOSKOWN">     0</i>
   <i type="logical" name="LHFCALC"> F  </i>
   <i type="string" name="PRECFOCK"></i>
   <i type="logical" name="LSYMGRAD"> F  </i>
   <i type="logical" name="LHFONE"> F  </i>
   <i type="logical" name="LRHFCALC"> F  </i>
   <i type="logical" name="LTHOMAS"> F  </i>
   <i type="logical" name="LMODELHF"> F  </i>
   <i name="ENCUT4O">     -1.00000000</i>
   <i type="int" name="EXXOEP">     0</i>
   <i type="int" name="FOURORBIT">     0</i>
   <i name="AEXX">      0.00000000</i>
   <i name="HFALPHA">      0.00000000</i>
   <i name="MCALPHA">      0.00000000</i>
   <i name="ALDAX">      1.00000000</i>
   <i name="AGGAX">      1.00000000</i>
   <i name="ALDAC">      1.00000000</i>
   <i name="AGGAC">      1.00000000</i>
   <i type="int" name="NKREDX">     1</i>
   <i type="int" name="NKREDY">     1</i>
   <i type="int" name="NKREDZ">     1</i>
   <i type="logical" name="SHIFTRED"> F  </i>
   <i type="logical" name="ODDONLY"> F  </i>
   <i type="logical" name="EVENONLY"> F  </i>
   <i type="int" name="LMAXFOCK">     0</i>
   <i type="int" name="NMAXFOCKAE">     0</i>
   <i type="logical" name="LFOCKAEDFT"> F  </i>
   <i name="HFSCREEN">      0.00000000</i>
   <i name="HFSCREENC">      0.00000000</i>
   <i type="int" name="NBANDSGWLOW">     0</i>
  </separator>
  <separator name="vdW DFT" >
   <i type="logical" name="LUSE_VDW"> F  </i>
   <i name="Zab_VDW">     -0.84910000</i>
   <i name="PARAM1">      0.12340000</i>
   <i name="PARAM2">      1.00000000</i>
   <i name="PARAM3">      0.00000000</i>
  </separator>
  <separator name="model GW" >
   <i type="int" name="MODEL_GW">     0</i>
   <i name="MODEL_EPS0">     68.66666115</i>
   <i name="MODEL_ALPHA">      1.00000000</i>
  </separator>
  <separator name="linear response parameters" >
   <i type="logical" name="LEPSILON"> F  </i>
   <i type="logical" name="LRPA"> F  </i>
   <i type="logical" name="LNABLA"> F  </i>
   <i type="logical" name="LVEL"> F  </i>
   <i type="int" name="KINTER">     0</i>
   <i name="CSHIFT">      0.10000000</i>
   <i name="OMEGAMAX">     -1.00000000</i>
   <i name="DEG_THRESHOLD">      0.00200000</i>
   <i name="RTIME">     -0.10000000</i>
   <i name="WPLASMAI">      0.00000000</i>
   <v name="DFIELD">      0.00000000      0.00000000      0.00000000</v>
   <v name="WPLASMA">      0.00000000      0.00000000      0.00000000      0.00000000      0.00000000      0.00000000      0.00000000      0.00000000      0.00000000</v>
  </separator>
  <separator name="orbital magnetization" >
   <i type="logical" name="NUCIND"> F  </i>
   <v name="MAGPOS">      0.00000000      0.00000000      0.00000000</v>
   <i type="logical" name="LNICSALL"> T  </i>
   <i type="logical" name="ORBITALMAG"> F  </i>
   <i type="logical" name="LMAGBLOCH"> F  </i>
   <i type="logical" name="LCHIMAG"> F  </i>
   <i type="logical" name="LGAUGE"> T  </i>
   <i type="int" name="MAGATOM">     0</i>
   <v name="MAGDIPOL">      0.00000000      0.00000000      0.00000000</v>
   <v name="AVECCONST">      0.00000000      0.00000000      0.00000000</v>
  </separator>
  <separator name="response functions" >
   <i type="logical" name="LADDER"> F  </i>
   <i type="logical" name="LRPAFORCE"> F  </i>
   <i type="logical" name="LFXC"> F  </i>
   <i type="logical" name="LHARTREE"> T  </i>
   <i type="int" name="IBSE">     0</i>
   <v type="int" name="KPOINT">    -1     0     0     0</v>
   <i type="logical" name="LTCTE"> F  </i>
   <i type="logical" name="LTETE"> F  </i>
   <i type="logical" name="LTRIPLET"> F  </i>
   <i type="logical" name="LFXCEPS"> F  </i>
   <i type="logical" name="LFXHEG"> F  </i>
   <i type="int" name="NATURALO">     2</i>
   <i type="logical" name="L2ORDER"> F  </i>
   <i type="logical" name="LMP2LT"> F  </i>
   <i type="logical" name="LUSEW"> F  </i>
   <i name="ENCUTGW">     -2.00000000</i>
   <i name="ENCUTGWSOFT">     -2.00000000</i>
   <i name="ENCUTLF">     -1.00000000</i>
   <i type="int" name="LMAXMP2">    -1</i>
   <i name="SCISSOR">      0.00000000</i>
   <i type="int" name="NOMEGA">     0</i>
   <i type="int" name="NOMEGAR">     0</i>
   <i type="int" name="NBANDSGW">    -1</i>
   <i type="int" name="NBANDSO">    -1</i>
   <i type="int" name="NBANDSV">    -1</i>
   <i type="int" name="NELM">   200</i>
   <i type="int" name="NELMHF">     1</i>
   <i type="int" name="DIM">     3</i>
   <i type="int" name="ANTIRES">     0</i>
   <i name="OMEGAMAX">    -30.00000000</i>
   <i name="OMEGAMIN">    -30.00000000</i>
   <i name="OMEGATL">   -200.00000000</i>
   <i type="int" name="OMEGAGRID">   140</i>
   <i name="CSHIFT">     -0.10000000</i>
   <i type="logical" name="SELFENERGY"> F  </i>
   <i type="logical" name="LSPECTRAL"> F  </i>
   <i type="logical" name="LSPECTRALGW"> F  </i>
   <i type="logical" name="LSINGLES"> F  </i>
   <i type="logical" name="LFERMIGW"> F  </i>
   <i type="logical" name="ODDONLYGW"> F  </i>
   <i type="logical" name="EVENONLYGW"> F  </i>
   <i type="int" name="NKREDLFX">     1</i>
   <i type="int" name="NKREDLFY">     1</i>
   <i type="int" name="NKREDLFZ">     1</i>
   <i type="int" name="MAXMEM">  2800</i>
   <i type="int" name="TELESCOPE">     0</i>
   <i type="int" name="TAUPAR">     1</i>
   <i type="int" name="OMEGAPAR">    -1</i>
   <i name="LAMBDA">      1.00000000</i>
  </separator>
  <separator name="External order field" >
   <i name="OFIELD_KAPPA">      0.00000000</i>
   <v name="OFIELD_K">      0.00000000      0.00000000      0.00000000</v>
   <i name="OFIELD_Q6_NEAR">      0.00000000</i>
   <i name="OFIELD_Q6_FAR">      0.00000000</i>
   <i name="OFIELD_A">      0.00000000</i>
  </separator>
 </parameters>
 <atominfo>
  <atoms>     175 </atoms>
  <types>       5 </types>
  <array name="atoms" >
   <dimension dim="1">ion</dimension>
   <field type="string">element</field>
   <field type="int">atomtype</field>
   <set>
    <rc><c>H </c><c>   1</c></rc>
    <rc><c>H </c><c>   1</c></rc>
    <rc><c>H </c><c>   1</c></rc>
    <rc><c>H </c><c>   1</c></rc>
    <rc><c>H </c><c>   1</c></rc>
    <rc><c>H </c><c>   1</c></rc>
    <rc><c>H </c><c>   1</c></rc>
    <rc><c>H </c><c>   1</c></rc>
    <rc><c>H </c><c>   1</c></rc>
    <rc><c>H </c><c>   1</c></rc>
    <rc><c>H </c><c>   1</c></rc>
    <rc><c>H </c><c>   1</c></rc>
    <rc><c>H </c><c>   1</c></rc>
    <rc><c>H </c><c>   1</c></rc>
    <rc><c>H </c><c>   1</c></rc>
    <rc><c>H </c><c>   1</c></rc>
    <rc><c>H </c><c>   1</c></rc>
    <rc><c>H </c><c>   1</c></rc>
    <rc><c>H </c><c>   1</c></rc>
    <rc><c>H </c><c>   1</c></rc>
    <rc><c>H </c><c>   1</c></rc>
    <rc><c>H </c><c>   1</c></rc>
    <rc><c>H </c><c>   1</c></rc>
    <rc><c>H </c><c>   1</c></rc>
    <rc><c>H </c><c>   1</c></rc>
    <rc><c>H </c><c>   1</c></rc>
    <rc><c>H </c><c>   1</c></rc>
    <rc><c>H </c><c>   1</c></rc>
    <rc><c>H </c><c>   1</c></rc>
    <rc><c>H </c><c>   1</c></rc>
    <rc><c>H </c><c>   1</c></rc>
    <rc><c>H </c><c>   1</c></rc>
    <rc><c>H </c><c>   1</c></rc>
    <rc><c>H </c><c>   1</c></rc>
    <rc><c>H </c><c>   1</c></rc>
    <rc><c>H </c><c>   1</c></rc>
    <rc><c>H </c><c>   1</c></rc>
    <rc><c>H </c><c>   1</c></rc>
    <rc><c>H </c><c>   1</c></rc>
    <rc><c>H </c><c>   1</c></rc>
    <rc><c>H </c><c>   1</c></rc>
    <rc><c>H </c><c>   1</c></rc>
    <rc><c>H </c><c>   1</c></rc>
    <rc><c>H </c><c>   1</c></rc>
    <rc><c>H </c><c>   1</c></rc>
    <rc><c>H </c><c>   1</c></rc>
    <rc><c>H </c><c>   1</c></rc>
    <rc><c>H </c><c>   1</c></rc>
    <rc><c>H </c><c>   1</c></rc>
    <rc><c>H </c><c>   1</c></rc>
    <rc><c>H </c><c>   1</c></rc>
    <rc><c>H </c><c>   1</c></rc>
    <rc><c>H </c><c>   1</c></rc>
    <rc><c>H </c><c>   1</c></rc>
    <rc><c>H </c><c>   1</c></rc>
    <rc><c>H </c><c>   1</c></rc>
    <rc><c>H </c><c>   1</c></rc>
    <rc><c>H </c><c>   1</c></rc>
    <rc><c>H </c><c>   1</c></rc>
    <rc><c>C </c><c>   2</c></rc>
    <rc><c>C </c><c>   2</c></rc>
    <rc><c>C </c><c>   2</c></rc>
    <rc><c>C </c><c>   2</c></rc>
    <rc><c>C </c><c>   2</c></rc>
    <rc><c>C </c><c>   2</c></rc>
    <rc><c>C </c><c>   2</c></rc>
    <rc><c>C </c><c>   2</c></rc>
    <rc><c>C </c><c>   2</c></rc>
    <rc><c>C </c><c>   2</c></rc>
    <rc><c>C </c><c>   2</c></rc>
    <rc><c>C </c><c>   2</c></rc>
    <rc><c>C </c><c>   2</c></rc>
    <rc><c>C </c><c>   2</c></rc>
    <rc><c>C </c><c>   2</c></rc>
    <rc><c>C </c><c>   2</c></rc>
    <rc><c>C </c><c>   2</c></rc>
    <rc><c>C </c><c>   2</c></rc>
    <rc><c>C </c><c>   2</c></rc>
    <rc><c>C </c><c>   2</c></rc>
    <rc><c>C </c><c>   2</c></rc>
    <rc><c>C </c><c>   2</c></rc>
    <rc><c>C </c><c>   2</c></rc>
    <rc><c>C </c><c>   2</c></rc>
    <rc><c>C </c><c>   2</c></rc>
    <rc><c>C </c><c>   2</c></rc>
    <rc><c>C </c><c>   2</c></rc>
    <rc><c>C </c><c>   2</c></rc>
    <rc><c>C </c><c>   2</c></rc>
    <rc><c>C </c><c>   2</c></rc>
    <rc><c>C </c><c>   2</c></rc>
    <rc><c>C </c><c>   2</c></rc>
    <rc><c>C </c><c>   2</c></rc>
    <rc><c>C </c><c>   2</c></rc>
    <rc><c>C </c><c>   2</c></rc>
    <rc><c>C </c><c>   2</c></rc>
    <rc><c>C </c><c>   2</c></rc>
    <rc><c>C </c><c>   2</c></rc>
    <rc><c>C </c><c>   2</c></rc>
    <rc><c>C </c><c>   2</c></rc>
    <rc><c>C </c><c>   2</c></rc>
    <rc><c>C </c><c>   2</c></rc>
    <rc><c>C </c><c>   2</c></rc>
    <rc><c>C </c><c>   2</c></rc>
    <rc><c>C </c><c>   2</c></rc>
    <rc><c>C </c><c>   2</c></rc>
    <rc><c>C </c><c>   2</c></rc>
    <rc><c>C </c><c>   2</c></rc>
    <rc><c>C </c><c>   2</c></rc>
    <rc><c>C </c><c>   2</c></rc>
    <rc><c>C </c><c>   2</c></rc>
    <rc><c>C </c><c>   2</c></rc>
    <rc><c>C </c><c>   2</c></rc>
    <rc><c>C </c><c>   2</c></rc>
    <rc><c>C </c><c>   2</c></rc>
    <rc><c>C </c><c>   2</c></rc>
    <rc><c>C </c><c>   2</c></rc>
    <rc><c>C </c><c>   2</c></rc>
    <rc><c>C </c><c>   2</c></rc>
    <rc><c>C </c><c>   2</c></rc>
    <rc><c>C </c><c>   2</c></rc>
    <rc><c>C </c><c>   2</c></rc>
    <rc><c>C </c><c>   2</c></rc>
    <rc><c>C </c><c>   2</c></rc>
    <rc><c>C </c><c>   2</c></rc>
    <rc><c>C </c><c>   2</c></rc>
    <rc><c>C </c><c>   2</c></rc>
    <rc><c>C </c><c>   2</c></rc>
    <rc><c>C </c><c>   2</c></rc>
    <rc><c>C </c><c>   2</c></rc>
    <rc><c>C </c><c>   2</c></rc>
    <rc><c>O </c><c>   3</c></rc>
    <rc><c>O </c><c>   3</c></rc>
    <rc><c>O </c><c>   3</c></rc>
    <rc><c>O </c><c>   3</c></rc>
    <rc><c>O </c><c>   3</c></rc>
    <rc><c>O </c><c>   3</c></rc>
    <rc><c>O </c><c>   3</c></rc>
    <rc><c>O </c><c>   3</c></rc>
    <rc><c>O </c><c>   3</c></rc>
    <rc><c>O </c><c>   3</c></rc>
    <rc><c>O </c><c>   3</c></rc>
    <rc><c>O </c><c>   3</c></rc>
    <rc><c>O </c><c>   3</c></rc>
    <rc><c>O </c><c>   3</c></rc>
    <rc><c>O </c><c>   3</c></rc>
    <rc><c>N </c><c>   4</c></rc>
    <rc><c>N </c><c>   4</c></rc>
    <rc><c>N </c><c>   4</c></rc>
    <rc><c>N </c><c>   4</c></rc>
    <rc><c>N </c><c>   4</c></rc>
    <rc><c>N </c><c>   4</c></rc>
    <rc><c>N </c><c>   4</c></rc>
    <rc><c>N </c><c>   4</c></rc>
    <rc><c>N </c><c>   4</c></rc>
    <rc><c>N </c><c>   4</c></rc>
    <rc><c>N </c><c>   4</c></rc>
    <rc><c>N </c><c>   4</c></rc>
    <rc><c>N </c><c>   4</c></rc>
    <rc><c>N </c><c>   4</c></rc>
    <rc><c>N </c><c>   4</c></rc>
    <rc><c>Al</c><c>   5</c></rc>
    <rc><c>Al</c><c>   5</c></rc>
    <rc><c>Al</c><c>   5</c></rc>
    <rc><c>Al</c><c>   5</c></rc>
    <rc><c>Al</c><c>   5</c></rc>
    <rc><c>Al</c><c>   5</c></rc>
    <rc><c>Al</c><c>   5</c></rc>
    <rc><c>Al</c><c>   5</c></rc>
    <rc><c>Al</c><c>   5</c></rc>
    <rc><c>Al</c><c>   5</c></rc>
    <rc><c>Al</c><c>   5</c></rc>
    <rc><c>Al</c><c>   5</c></rc>
    <rc><c>Al</c><c>   5</c></rc>
    <rc><c>Al</c><c>   5</c></rc>
    <rc><c>Al</c><c>   5</c></rc>
   </set>
  </array>
  <array name="atomtypes" >
   <dimension dim="1">type</dimension>
   <field type="int">atomspertype</field>
   <field type="string">element</field>
   <field>mass</field>
   <field>valence</field>
   <field type="string">pseudopotential</field>
   <set>
    <rc><c>  59</c><c>H </c><c>      1.00000000</c><c>      1.00000000</c><c>  PAW_PBE H 15Jun2001                   </c></rc>
    <rc><c>  71</c><c>C </c><c>     12.01100000</c><c>      4.00000000</c><c>  PAW_PBE C 08Apr2002                   </c></rc>
    <rc><c>  15</c><c>O </c><c>     16.00000000</c><c>      6.00000000</c><c>  PAW_PBE O 08Apr2002                   </c></rc>
    <rc><c>  15</c><c>N </c><c>     14.00100000</c><c>      5.00000000</c><c>  PAW_PBE N 08Apr2002                   </c></rc>
    <rc><c>  15</c><c>Al</c><c>     26.98100000</c><c>      3.00000000</c><c>  PAW_PBE Al 04Jan2001                  </c></rc>
   </set>
  </array>
 </atominfo>
 <structure name="initialpos" >
  <crystal>
   <varray name="basis" >
    <v>      27.15673637       0.00000000       0.00000000 </v>
    <v>       0.00000000      27.15673637       0.00000000 </v>
    <v>       0.00000000       0.00000000      27.15673637 </v>
   </varray>
   <i name="volume">  20027.77616971 </i>
   <varray name="rec_basis" >
    <v>       0.03682328       0.00000000       0.00000000 </v>
    <v>       0.00000000       0.03682328       0.00000000 </v>
    <v>       0.00000000       0.00000000       0.03682328 </v>
   </varray>
  </crystal>
  <varray name="positions" >
   <v>       0.55550408       0.26322836       0.57172495 </v>
   <v>       0.43363303       0.51499355       0.60509455 </v>
   <v>       0.53120518       0.33019039       0.62630332 </v>
   <v>       0.40839991       0.35908893       0.59210545 </v>
   <v>       0.68393964       0.78537953       0.69755256 </v>
   <v>       0.30581912       0.66155201       0.67972243 </v>
   <v>       0.41390276       0.78912073       0.58341116 </v>
   <v>       0.21898538       0.76827908       0.57473260 </v>
   <v>       0.59262121       0.31808695       0.85362625 </v>
   <v>       0.38062227       0.70299327       0.81343842 </v>
   <v>       0.54485261       0.71256256       0.63204956 </v>
   <v>       0.74287826       0.36790884       0.76155257 </v>
   <v>       0.26663876       0.60852242       0.75226754 </v>
   <v>       0.40299937       0.67706525       0.63918251 </v>
   <v>       0.69698066       0.20629886       0.83878171 </v>
   <v>       0.39443833       0.54626971       0.68852419 </v>
   <v>       0.76800644       0.24334085       0.87842119 </v>
   <v>       0.36859950       0.46757731       0.67310643 </v>
   <v>       0.71300423       0.21904302       0.61565989 </v>
   <v>       0.27292705       0.72936428       0.63015902 </v>
   <v>       0.39506581       0.27403599       0.63227636 </v>
   <v>       0.79239559       0.68544000       0.61093765 </v>
   <v>       0.62980425       0.35287243       0.63053536 </v>
   <v>       0.35946912       0.78994191       0.79833531 </v>
   <v>       0.56240219       0.77881831       0.69120646 </v>
   <v>       0.58689708       0.36635488       0.69825733 </v>
   <v>       0.43716919       0.58559328       0.74988210 </v>
   <v>       0.31216407       0.78959173       0.56109554 </v>
   <v>       0.57445520       0.24309084       0.82219094 </v>
   <v>       0.43904898       0.65043360       0.75869989 </v>
   <v>       0.49197510       0.37363708       0.73048484 </v>
   <v>       0.42367160       0.62634969       0.70008314 </v>
   <v>       0.78112173       0.26370302       0.74482232 </v>
   <v>       0.21790867       0.54088289       0.74717486 </v>
   <v>       0.33488294       0.61666590       0.63197476 </v>
   <v>       0.65651768       0.75915504       0.75949526 </v>
   <v>       0.38866371       0.63147402       0.83304417 </v>
   <v>       0.48904213       0.62542284       0.55545819 </v>
   <v>       0.62795722       0.77394617       0.81614602 </v>
   <v>       0.32548639       0.61474890       0.82599556 </v>
   <v>       0.53880990       0.66166544       0.57685143 </v>
   <v>       0.59181994       0.76975060       0.76240617 </v>
   <v>       0.37248138       0.57012314       0.81762809 </v>
   <v>       0.49063730       0.64432645       0.61808324 </v>
   <v>       0.59030062       0.57788837       0.70147645 </v>
   <v>       0.69760257       0.47350806       0.64869511 </v>
   <v>       0.76374853       0.52594733       0.78534079 </v>
   <v>       0.63349873       0.45529196       0.72899270 </v>
   <v>       0.32141447       0.47129387       0.85081297 </v>
   <v>       0.54161066       0.56625521       0.62500966 </v>
   <v>       0.64912653       0.46246439       0.57221246 </v>
   <v>       0.71376717       0.60616136       0.68704659 </v>
   <v>       0.73839092       0.54991490       0.62694836 </v>
   <v>       0.75438106       0.57996893       0.72949463 </v>
   <v>       0.19696543       0.42642987       0.87014258 </v>
   <v>       0.62865055       0.56068051       0.77714795 </v>
   <v>       0.68777847       0.58565921       0.78851831 </v>
   <v>       0.65006405       0.61222279       0.74211246 </v>
   <v>       0.71685851       0.38962975       0.84807181 </v>
   <v>       0.55095458       0.29967642       0.55565995 </v>
   <v>       0.41823134       0.48422104       0.58443666 </v>
   <v>       0.53711677       0.33783603       0.58743370 </v>
   <v>       0.40364379       0.39613426       0.57717401 </v>
   <v>       0.42328975       0.43651354       0.60191959 </v>
   <v>       0.53074968       0.38457578       0.56784040 </v>
   <v>       0.49883121       0.41975087       0.64213794 </v>
   <v>       0.66970414       0.22658588       0.68245834 </v>
   <v>       0.32018089       0.68912530       0.70499939 </v>
   <v>       0.44676754       0.78660977       0.60656673 </v>
   <v>       0.22467275       0.73494744       0.55292439 </v>
   <v>       0.62430543       0.30189759       0.69143260 </v>
   <v>       0.36055356       0.71192217       0.77993292 </v>
   <v>       0.51942652       0.74330592       0.63395405 </v>
   <v>       0.63897032       0.25624007       0.71188647 </v>
   <v>       0.34633350       0.67430979       0.74702692 </v>
   <v>       0.47735921       0.74458843       0.60376000 </v>
   <v>       0.63400286       0.24415538       0.76763725 </v>
   <v>       0.36462733       0.62075073       0.75569767 </v>
   <v>       0.46929345       0.70264900       0.56576395 </v>
   <v>       0.68375480       0.26286566       0.78741205 </v>
   <v>       0.33502880       0.57805085       0.73123050 </v>
   <v>       0.41647744       0.68230152       0.56082118 </v>
   <v>       0.74080914       0.32791066       0.76492709 </v>
   <v>       0.28507912       0.57546580       0.73819369 </v>
   <v>       0.39066029       0.66586399       0.60261416 </v>
   <v>       0.71269161       0.23911795       0.82171965 </v>
   <v>       0.36039340       0.53688240       0.70793533 </v>
   <v>       0.75761080       0.25635123       0.84179336 </v>
   <v>       0.34583789       0.48844469       0.69886136 </v>
   <v>       0.68658465       0.24115834       0.63629228 </v>
   <v>       0.31222743       0.73906577       0.69395310 </v>
   <v>       0.45663363       0.23206887       0.64024305 </v>
   <v>       0.21404810       0.68917572       0.57374465 </v>
   <v>       0.64035410       0.31704080       0.64479887 </v>
   <v>       0.34992012       0.76174814       0.77131110 </v>
   <v>       0.53002054       0.78094411       0.66767651 </v>
   <v>       0.58723950       0.26833946       0.79342818 </v>
   <v>       0.41930878       0.62056988       0.73990238 </v>
   <v>       0.78765351       0.29889759       0.76438498 </v>
   <v>       0.25374436       0.53240764       0.73080099 </v>
   <v>       0.35119200       0.63279754       0.59898406 </v>
   <v>       0.79119664       0.28750449       0.81938946 </v>
   <v>       0.26866329       0.48114371       0.74822730 </v>
   <v>       0.33548981       0.61817455       0.55251199 </v>
   <v>       0.67217904       0.28715539       0.61832356 </v>
   <v>       0.32676932       0.77494121       0.72780848 </v>
   <v>       0.49816731       0.22728369       0.67166913 </v>
   <v>       0.22405043       0.64701337       0.54623103 </v>
   <v>       0.69366318       0.34748626       0.55553007 </v>
   <v>       0.28051710       0.24129716       0.67776346 </v>
   <v>       0.65878379       0.68298763       0.61541462 </v>
   <v>       0.26121101       0.57294488       0.57676458 </v>
   <v>       0.62773919       0.78177083       0.77650714 </v>
   <v>       0.36280790       0.60892528       0.81158549 </v>
   <v>       0.49902713       0.65582192       0.58020562 </v>
   <v>       0.60467017       0.55373973       0.67287695 </v>
   <v>       0.66436952       0.49532583       0.64309907 </v>
   <v>       0.64982986       0.52949381       0.67953682 </v>
   <v>       0.68441391       0.54149854       0.72209752 </v>
   <v>       0.69778997       0.49560240       0.75247782 </v>
   <v>       0.73851317       0.49488986       0.78416497 </v>
   <v>       0.66453338       0.45587707       0.75455207 </v>
   <v>       0.66987425       0.41810745       0.78955746 </v>
   <v>       0.57667971       0.54740977       0.63005263 </v>
   <v>       0.63730443       0.48897421       0.59990180 </v>
   <v>       0.72930443       0.57063794       0.69907892 </v>
   <v>       0.74797124       0.45573458       0.81726217 </v>
   <v>       0.71087986       0.41946107       0.82154763 </v>
   <v>       0.59453237       0.51657325       0.59345251 </v>
   <v>       0.66096485       0.57728750       0.75945663 </v>
   <v>       0.51513106       0.42579836       0.59544498 </v>
   <v>       0.44986916       0.42878911       0.64704841 </v>
   <v>       0.52452505       0.40945876       0.67779696 </v>
   <v>       0.69505066       0.30068648       0.57388753 </v>
   <v>       0.31817809       0.23292723       0.71589798 </v>
   <v>       0.50073647       0.26371998       0.70824128 </v>
   <v>       0.22103499       0.60144246       0.57246614 </v>
   <v>       0.23360090       0.30717880       0.84723479 </v>
   <v>       0.62107092       0.68960255       0.59442347 </v>
   <v>       0.29946929       0.58017737       0.54577887 </v>
   <v>       0.66390377       0.37995082       0.56423354 </v>
   <v>       0.26490587       0.28661925       0.67586374 </v>
   <v>       0.69660240       0.67647243       0.63645911 </v>
   <v>       0.26109576       0.53695160       0.60548490 </v>
   <v>       0.56511939       0.51062483       0.55053973 </v>
   <v>       0.30908901       0.45936054       0.72029173 </v>
   <v>       0.29245520       0.75503969       0.64922869 </v>
   <v>       0.59343910       0.31888270       0.81608272 </v>
   <v>       0.75744098       0.54893428       0.65927744 </v>
   <v>       0.79266369       0.45308807       0.84359300 </v>
   <v>       0.69549328       0.31065306       0.77158427 </v>
   <v>       0.48174155       0.34375900       0.75213027 </v>
   <v>       0.26681036       0.20716861       0.64811736 </v>
   <v>       0.59641033       0.33695814       0.72012639 </v>
   <v>       0.42858458       0.27438617       0.64918303 </v>
   <v>       0.34166509       0.28532013       0.82262576 </v>
   <v>       0.29565516       0.39309302       0.81292474 </v>
   <v>       0.54375488       0.61938751       0.84340221 </v>
   <v>       0.39184967       0.41464090       0.77532226 </v>
   <v>       0.53256541       0.59872562       0.80954427 </v>
   <v>       0.54010022       0.30327553       0.75211143 </v>
   <v>       0.43996149       0.29797739       0.71383917 </v>
   <v>       0.32900926       0.39606282       0.75016272 </v>
   <v>       0.22210395       0.51500422       0.66412067 </v>
   <v>       0.26139694       0.45255780       0.81348920 </v>
   <v>       0.24415115       0.42917690       0.69320673 </v>
   <v>       0.25293237       0.33419162       0.72245544 </v>
   <v>       0.28941467       0.32708544       0.82189453 </v>
   <v>       0.35395446       0.29211771       0.75538015 </v>
   <v>       0.63695425       0.35531971       0.77944171 </v>
   <v>       0.44071600       0.37174544       0.80368173 </v>
   <v>       0.42645544       0.47523358       0.76507771 </v>
   <v>       0.43540645       0.38349539       0.90000004 </v>
   <v>       0.35708550       0.41554675       0.84413391 </v>
   <v>       0.38722610       0.31456551       0.86371976 </v>
  </varray>
 </structure>
 <calculation>
  <scstep>
   <time name="dav">  627.50  632.53</time>
   <time name="total">  628.29  633.34</time>
   <energy>
    <i name="alphaZ">     62.28272480 </i>
    <i name="ewald"> 102150.67855722 </i>
    <i name="hartreedc">-118799.10019011 </i>
    <i name="XCdc">   1352.80325688 </i>
    <i name="pawpsdc">  17096.20839613 </i>
    <i name="pawaedc"> -16702.68677364 </i>
    <i name="eentropy">      0.00000000 </i>
    <i name="bandstr">  -2896.47229867 </i>
    <i name="atom">  22440.68271806 </i>
    <i name="e_fr_energy">   4704.39639068 </i>
    <i name="e_wo_entrp">   4704.39639068 </i>
    <i name="e_0_energy">   4704.39639068 </i>
   </energy>
  </scstep>
  <scstep>
   <time name="dav">  851.03  858.67</time>
   <time name="total">  851.05  858.69</time>
   <energy>
    <i name="e_fr_energy">    521.92234284 </i>
    <i name="e_wo_entrp">    521.92234284 </i>
    <i name="e_0_energy">    521.92234284 </i>
   </energy>
  </scstep>
  <scstep>
   <time name="dav">  757.42  763.39</time>
   <time name="total">  757.44  763.41</time>
   <energy>
    <i name="e_fr_energy">  -1051.32990776 </i>
    <i name="e_wo_entrp">  -1051.32990776 </i>
    <i name="e_0_energy">  -1051.32990776 </i>
   </energy>
  </scstep>
  <scstep>
   <time name="dav">  730.34  738.04</time>
   <time name="total">  730.36  738.06</time>
   <energy>
    <i name="e_fr_energy">  -1169.62932669 </i>
    <i name="e_wo_entrp">  -1169.62932669 </i>
    <i name="e_0_energy">  -1169.62932669 </i>
   </energy>
  </scstep>
  <scstep>
   <time name="dav">  780.64  788.19</time>
   <time name="total">  789.31  796.92</time>
   <energy>
    <i name="e_fr_energy">  -1172.03893177 </i>
    <i name="e_wo_entrp">  -1172.03893177 </i>
    <i name="e_0_energy">  -1172.03893177 </i>
   </energy>
  </scstep>
  <scstep>
   <time name="dav">  729.21  736.21</time>
   <time name="total">  738.57  745.63</time>
   <energy>
    <i name="e_fr_energy">  -1108.42264564 </i>
    <i name="e_wo_entrp">  -1108.42264564 </i>
    <i name="e_0_energy">  -1108.42264564 </i>
   </energy>
  </scstep>
  <scstep>
   <time name="dav">  692.56  699.05</time>
   <time name="total">  701.98  708.52</time>
   <energy>
    <i name="e_fr_energy">  -1071.69463424 </i>
    <i name="e_wo_entrp">  -1071.69463424 </i>
    <i name="e_0_energy">  -1071.69463424 </i>
   </energy>
  </scstep>
  <scstep>
   <time name="dav">  723.18  730.07</time>
   <time name="total">  732.52  739.45</time>
   <energy>
    <i name="e_fr_energy">  -1072.07615526 </i>
    <i name="e_wo_entrp">  -1072.07615526 </i>
    <i name="e_0_energy">  -1072.07615526 </i>
   </energy>
  </scstep>
  <scstep>
   <time name="dav">  726.87  733.34</time>
   <time name="total">  736.22  742.73</time>
   <energy>
    <i name="e_fr_energy">  -1064.38537497 </i>
    <i name="e_wo_entrp">  -1064.38537497 </i>
    <i name="e_0_energy">  -1064.38537497 </i>
   </energy>
  </scstep>
  <scstep>
   <time name="dav">  706.04  713.23</time>
   <time name="total">  715.42  722.66</time>
   <energy>
    <i name="e_fr_energy">  -1056.63701225 </i>
    <i name="e_wo_entrp">  -1056.63701225 </i>
    <i name="e_0_energy">  -1056.63701225 </i>
   </energy>
  </scstep>
  <scstep>
   <time name="dav">  706.79  712.99</time>
   <time name="total">  716.14  722.39</time>
   <energy>
    <i name="e_fr_energy">  -1055.68547756 </i>
    <i name="e_wo_entrp">  -1055.68547756 </i>
    <i name="e_0_energy">  -1055.68547756 </i>
   </energy>
  </scstep>
  <scstep>
   <time name="dav">  692.44  698.47</time>
   <time name="total">  701.76  707.83</time>
   <energy>
    <i name="e_fr_energy">  -1056.42924093 </i>
    <i name="e_wo_entrp">  -1056.42924093 </i>
    <i name="e_0_energy">  -1056.42924093 </i>
   </energy>
  </scstep>
  <scstep>
   <time name="dav">  714.39  720.97</time>
   <time name="total">  723.66  730.28</time>
   <energy>
    <i name="e_fr_energy">  -1052.22605338 </i>
    <i name="e_wo_entrp">  -1052.22605338 </i>
    <i name="e_0_energy">  -1052.22605338 </i>
   </energy>
  </scstep>
  <scstep>
   <time name="dav">  706.08  712.77</time>
   <time name="total">  715.39  722.12</time>
   <energy>
    <i name="e_fr_energy">  -1051.18430769 </i>
    <i name="e_wo_entrp">  -1051.18430769 </i>
    <i name="e_0_energy">  -1051.18430769 </i>
   </energy>
  </scstep>
  <scstep>
   <time name="dav">  703.54  710.67</time>
   <time name="total">  712.81  719.98</time>
   <energy>
    <i name="e_fr_energy">  -1050.38539265 </i>
    <i name="e_wo_entrp">  -1050.38539265 </i>
    <i name="e_0_energy">  -1050.38539265 </i>
   </energy>
  </scstep>
  <scstep>
   <time name="dav">  720.37  727.22</time>
   <time name="total">  729.65  736.55</time>
   <energy>
    <i name="e_fr_energy">  -1050.07479438 </i>
    <i name="e_wo_entrp">  -1050.07479438 </i>
    <i name="e_0_energy">  -1050.07479438 </i>
   </energy>
  </scstep>
  <scstep>
   <time name="dav">  701.75  708.08</time>
   <time name="total">  710.99  717.36</time>
   <energy>
    <i name="e_fr_energy">  -1050.09549970 </i>
    <i name="e_wo_entrp">  -1050.09549970 </i>
    <i name="e_0_energy">  -1050.09549970 </i>
   </energy>
  </scstep>
  <scstep>
   <time name="dav">  656.50  661.88</time>
   <time name="total">  665.73  671.15</time>
   <energy>
    <i name="e_fr_energy">  -1049.33042153 </i>
    <i name="e_wo_entrp">  -1049.33042153 </i>
    <i name="e_0_energy">  -1049.33042153 </i>
   </energy>
  </scstep>
  <scstep>
   <time name="dav">  636.70  642.49</time>
   <time name="total">  646.00  651.83</time>
   <energy>
    <i name="e_fr_energy">  -1048.98856487 </i>
    <i name="e_wo_entrp">  -1048.98856487 </i>
    <i name="e_0_energy">  -1048.98856487 </i>
   </energy>
  </scstep>
  <scstep>
   <time name="dav">  677.88  684.27</time>
   <time name="total">  687.24  693.66</time>
   <energy>
    <i name="e_fr_energy">  -1049.02066127 </i>
    <i name="e_wo_entrp">  -1049.02066127 </i>
    <i name="e_0_energy">  -1049.02066127 </i>
   </energy>
  </scstep>
  <scstep>
   <time name="dav">  654.86  660.26</time>
   <time name="total">  664.10  669.56</time>
   <energy>
    <i name="e_fr_energy">  -1049.06779887 </i>
    <i name="e_wo_entrp">  -1049.06779887 </i>
    <i name="e_0_energy">  -1049.06779887 </i>
   </energy>
  </scstep>
  <scstep>
   <time name="dav">  670.65  676.63</time>
   <time name="total">  680.13  686.16</time>
   <energy>
    <i name="e_fr_energy">  -1048.95951601 </i>
    <i name="e_wo_entrp">  -1048.95951601 </i>
    <i name="e_0_energy">  -1048.95951601 </i>
   </energy>
  </scstep>
  <scstep>
   <time name="dav">  733.43  740.35</time>
   <time name="total">  742.84  749.80</time>
   <energy>
    <i name="e_fr_energy">  -1049.23736581 </i>
    <i name="e_wo_entrp">  -1049.23736581 </i>
    <i name="e_0_energy">  -1049.23736581 </i>
   </energy>
  </scstep>
  <scstep>
   <time name="dav">  716.26  723.14</time>
   <time name="total">  725.67  732.59</time>
   <energy>
    <i name="e_fr_energy">  -1048.98156208 </i>
    <i name="e_wo_entrp">  -1048.98156208 </i>
    <i name="e_0_energy">  -1048.98156208 </i>
   </energy>
  </scstep>
  <scstep>
   <time name="dav">  688.09  693.94</time>
   <time name="total">  697.45  703.39</time>
   <energy>
    <i name="e_fr_energy">  -1049.14886682 </i>
    <i name="e_wo_entrp">  -1049.14886682 </i>
    <i name="e_0_energy">  -1049.14886682 </i>
   </energy>
  </scstep>
  <scstep>
   <time name="dav">  633.61  638.95</time>
   <time name="total">  642.92  648.51</time>
   <energy>
    <i name="e_fr_energy">  -1048.73375423 </i>
    <i name="e_wo_entrp">  -1048.73375423 </i>
    <i name="e_0_energy">  -1048.73375423 </i>
   </energy>
  </scstep>
  <scstep>
   <time name="dav">  615.07  620.73</time>
   <time name="total">  624.50  630.23</time>
   <energy>
    <i name="e_fr_energy">  -1048.73544100 </i>
    <i name="e_wo_entrp">  -1048.73544100 </i>
    <i name="e_0_energy">  -1048.73544100 </i>
   </energy>
  </scstep>
  <scstep>
   <time name="dav">  640.92  646.55</time>
   <time name="total">  650.20  655.91</time>
   <energy>
    <i name="e_fr_energy">  -1048.75259155 </i>
    <i name="e_wo_entrp">  -1048.75259155 </i>
    <i name="e_0_energy">  -1048.75259155 </i>
   </energy>
  </scstep>
  <scstep>
   <time name="dav">  618.03  623.13</time>
   <time name="total">  627.35  632.69</time>
   <energy>
    <i name="e_fr_energy">  -1048.65234466 </i>
    <i name="e_wo_entrp">  -1048.65234466 </i>
    <i name="e_0_energy">  -1048.65234466 </i>
   </energy>
  </scstep>
  <scstep>
   <time name="dav">  626.52  632.26</time>
   <time name="total">  635.73  641.56</time>
   <energy>
    <i name="e_fr_energy">  -1048.65017548 </i>
    <i name="e_wo_entrp">  -1048.65017548 </i>
    <i name="e_0_energy">  -1048.65017548 </i>
   </energy>
  </scstep>
  <scstep>
   <time name="dav">  626.33  632.54</time>
   <time name="total">  635.60  641.84</time>
   <energy>
    <i name="e_fr_energy">  -1048.67791341 </i>
    <i name="e_wo_entrp">  -1048.67791341 </i>
    <i name="e_0_energy">  -1048.67791341 </i>
   </energy>
  </scstep>
  <scstep>
   <time name="dav">  640.24  646.76</time>
   <time name="total">  649.54  656.11</time>
   <energy>
    <i name="e_fr_energy">  -1048.68530314 </i>
    <i name="e_wo_entrp">  -1048.68530314 </i>
    <i name="e_0_energy">  -1048.68530314 </i>
   </energy>
  </scstep>
  <scstep>
   <time name="dav">  642.74  648.84</time>
   <time name="total">  652.02  658.18</time>
   <energy>
    <i name="e_fr_energy">  -1048.70400372 </i>
    <i name="e_wo_entrp">  -1048.70400372 </i>
    <i name="e_0_energy">  -1048.70400372 </i>
   </energy>
  </scstep>
  <scstep>
   <time name="dav">  641.24  647.88</time>
   <time name="total">  650.47  657.20</time>
   <energy>
    <i name="e_fr_energy">  -1048.64390561 </i>
    <i name="e_wo_entrp">  -1048.64390561 </i>
    <i name="e_0_energy">  -1048.64390561 </i>
   </energy>
  </scstep>
  <scstep>
   <time name="dav">  602.60  608.39</time>
   <time name="total">  611.92  617.76</time>
   <energy>
    <i name="e_fr_energy">  -1048.65821809 </i>
    <i name="e_wo_entrp">  -1048.65821809 </i>
    <i name="e_0_energy">  -1048.65821809 </i>
   </energy>
  </scstep>
  <scstep>
   <time name="dav">  589.27  595.07</time>
   <time name="total">  598.59  604.43</time>
   <energy>
    <i name="e_fr_energy">  -1048.65025217 </i>
    <i name="e_wo_entrp">  -1048.65025217 </i>
    <i name="e_0_energy">  -1048.65025217 </i>
   </energy>
  </scstep>
  <scstep>
   <time name="dav">  613.35  619.26</time>
   <time name="total">  622.65  628.66</time>
   <energy>
    <i name="e_fr_energy">  -1048.68155741 </i>
    <i name="e_wo_entrp">  -1048.68155741 </i>
    <i name="e_0_energy">  -1048.68155741 </i>
   </energy>
  </scstep>
  <scstep>
   <time name="dav">  593.77  599.39</time>
   <time name="total">  603.13  608.79</time>
   <energy>
    <i name="e_fr_energy">  -1048.65266724 </i>
    <i name="e_wo_entrp">  -1048.65266724 </i>
    <i name="e_0_energy">  -1048.65266724 </i>
   </energy>
  </scstep>
  <scstep>
   <time name="dav">  611.37  617.27</time>
   <time name="total">  620.67  626.65</time>
   <energy>
    <i name="e_fr_energy">  -1048.66169676 </i>
    <i name="e_wo_entrp">  -1048.66169676 </i>
    <i name="e_0_energy">  -1048.66169676 </i>
   </energy>
  </scstep>
  <scstep>
   <time name="dav">  602.87  608.37</time>
   <time name="total">  612.21  617.85</time>
   <energy>
    <i name="e_fr_energy">  -1048.67303847 </i>
    <i name="e_wo_entrp">  -1048.67303847 </i>
    <i name="e_0_energy">  -1048.67303847 </i>
   </energy>
  </scstep>
  <scstep>
   <time name="dav">  620.79  626.26</time>
   <time name="total">  630.17  635.73</time>
   <energy>
    <i name="e_fr_energy">  -1048.68336715 </i>
    <i name="e_wo_entrp">  -1048.68336715 </i>
    <i name="e_0_energy">  -1048.68336715 </i>
   </energy>
  </scstep>
  <scstep>
   <time name="dav">  639.09  645.88</time>
   <time name="total">  648.46  655.28</time>
   <energy>
    <i name="e_fr_energy">  -1048.69287291 </i>
    <i name="e_wo_entrp">  -1048.69287291 </i>
    <i name="e_0_energy">  -1048.69287291 </i>
   </energy>
  </scstep>
  <scstep>
   <time name="dav">  625.03  630.84</time>
   <time name="total">  634.43  640.29</time>
   <energy>
    <i name="e_fr_energy">  -1048.69221567 </i>
    <i name="e_wo_entrp">  -1048.69221567 </i>
    <i name="e_0_energy">  -1048.69221567 </i>
   </energy>
  </scstep>
  <scstep>
   <time name="dav">  608.59  613.92</time>
   <time name="total">  617.97  623.34</time>
   <energy>
    <i name="e_fr_energy">  -1048.68911306 </i>
    <i name="e_wo_entrp">  -1048.68911306 </i>
    <i name="e_0_energy">  -1048.68911306 </i>
   </energy>
  </scstep>
  <scstep>
   <time name="dav">  612.92  619.19</time>
   <time name="total">  622.17  628.74</time>
   <energy>
    <i name="e_fr_energy">  -1048.70264471 </i>
    <i name="e_wo_entrp">  -1048.70264471 </i>
    <i name="e_0_energy">  -1048.70264471 </i>
   </energy>
  </scstep>
  <scstep>
   <time name="dav">  635.72  640.96</time>
   <time name="total">  645.06  650.35</time>
   <energy>
    <i name="e_fr_energy">  -1048.70747034 </i>
    <i name="e_wo_entrp">  -1048.70747034 </i>
    <i name="e_0_energy">  -1048.70747034 </i>
   </energy>
  </scstep>
  <scstep>
   <time name="dav">  610.17  615.70</time>
   <time name="total">  619.43  625.00</time>
   <energy>
    <i name="e_fr_energy">  -1048.71079180 </i>
    <i name="e_wo_entrp">  -1048.71079180 </i>
    <i name="e_0_energy">  -1048.71079180 </i>
   </energy>
  </scstep>
  <scstep>
   <time name="dav">  667.95  674.09</time>
   <time name="total">  677.33  683.51</time>
   <energy>
    <i name="e_fr_energy">  -1048.71901256 </i>
    <i name="e_wo_entrp">  -1048.71901256 </i>
    <i name="e_0_energy">  -1048.71901256 </i>
   </energy>
  </scstep>
  <scstep>
   <time name="dav">  598.09  603.77</time>
   <time name="total">  607.47  613.24</time>
   <energy>
    <i name="e_fr_energy">  -1048.71363634 </i>
    <i name="e_wo_entrp">  -1048.71363634 </i>
    <i name="e_0_energy">  -1048.71363634 </i>
   </energy>
  </scstep>
  <scstep>
   <time name="dav">  620.28  625.33</time>
   <time name="total">  629.94  635.19</time>
   <energy>
    <i name="e_fr_energy">  -1048.71748926 </i>
    <i name="e_wo_entrp">  -1048.71748926 </i>
    <i name="e_0_energy">  -1048.71748926 </i>
   </energy>
  </scstep>
  <scstep>
   <time name="dav">  666.85  673.24</time>
   <time name="total">  676.27  682.71</time>
   <energy>
    <i name="e_fr_energy">  -1048.72414261 </i>
    <i name="e_wo_entrp">  -1048.72414261 </i>
    <i name="e_0_energy">  -1048.72414261 </i>
   </energy>
  </scstep>
  <scstep>
   <time name="dav">  637.27  643.31</time>
   <time name="total">  646.52  652.68</time>
   <energy>
    <i name="e_fr_energy">  -1048.72713044 </i>
    <i name="e_wo_entrp">  -1048.72713044 </i>
    <i name="e_0_energy">  -1048.72713044 </i>
   </energy>
  </scstep>
  <scstep>
   <time name="dav">  660.85  667.12</time>
   <time name="total">  669.97  676.44</time>
   <energy>
    <i name="e_fr_energy">  -1048.72812534 </i>
    <i name="e_wo_entrp">  -1048.72812534 </i>
    <i name="e_0_energy">  -1048.72812534 </i>
   </energy>
  </scstep>
  <scstep>
   <time name="dav">  627.06  632.76</time>
   <time name="total">  636.41  642.17</time>
   <energy>
    <i name="e_fr_energy">  -1048.73223384 </i>
    <i name="e_wo_entrp">  -1048.73223384 </i>
    <i name="e_0_energy">  -1048.73223384 </i>
   </energy>
  </scstep>
  <scstep>
   <time name="dav">  670.18  678.01</time>
   <time name="total">  679.59  687.46</time>
   <energy>
    <i name="e_fr_energy">  -1048.72896344 </i>
    <i name="e_wo_entrp">  -1048.72896344 </i>
    <i name="e_0_energy">  -1048.72896344 </i>
   </energy>
  </scstep>
  <scstep>
   <time name="dav">  609.70  615.55</time>
   <time name="total">  619.04  624.94</time>
   <energy>
    <i name="e_fr_energy">  -1048.73412424 </i>
    <i name="e_wo_entrp">  -1048.73412424 </i>
    <i name="e_0_energy">  -1048.73412424 </i>
   </energy>
  </scstep>
  <scstep>
   <time name="dav">  624.77  630.96</time>
   <time name="total">  633.99  640.25</time>
   <energy>
    <i name="e_fr_energy">  -1048.73372957 </i>
    <i name="e_wo_entrp">  -1048.73372957 </i>
    <i name="e_0_energy">  -1048.73372957 </i>
   </energy>
  </scstep>
  <scstep>
   <time name="dav">  676.65  683.05</time>
   <time name="total">  685.94  692.39</time>
   <energy>
    <i name="e_fr_energy">  -1048.73349060 </i>
    <i name="e_wo_entrp">  -1048.73349060 </i>
    <i name="e_0_energy">  -1048.73349060 </i>
   </energy>
  </scstep>
  <scstep>
   <time name="dav">  628.02  636.99</time>
   <time name="total">  637.39  646.41</time>
   <energy>
    <i name="e_fr_energy">  -1048.73596194 </i>
    <i name="e_wo_entrp">  -1048.73596194 </i>
    <i name="e_0_energy">  -1048.73596194 </i>
   </energy>
  </scstep>
  <scstep>
   <time name="dav">  673.70  680.24</time>
   <time name="total">  682.99  689.61</time>
   <energy>
    <i name="e_fr_energy">  -1048.73598399 </i>
    <i name="e_wo_entrp">  -1048.73598399 </i>
    <i name="e_0_energy">  -1048.73598399 </i>
   </energy>
  </scstep>
  <scstep>
   <time name="dav">  620.24  626.02</time>
   <time name="total">  629.59  635.42</time>
   <energy>
    <i name="e_fr_energy">  -1048.73745800 </i>
    <i name="e_wo_entrp">  -1048.73745800 </i>
    <i name="e_0_energy">  -1048.73745800 </i>
   </energy>
  </scstep>
  <scstep>
   <time name="dav">  641.73  648.12</time>
   <time name="total">  651.10  657.53</time>
   <energy>
    <i name="e_fr_energy">  -1048.73747853 </i>
    <i name="e_wo_entrp">  -1048.73747853 </i>
    <i name="e_0_energy">  -1048.73747853 </i>
   </energy>
  </scstep>
  <scstep>
   <time name="dav">  647.66  656.05</time>
   <time name="total">  656.97  665.40</time>
   <energy>
    <i name="e_fr_energy">  -1048.73810018 </i>
    <i name="e_wo_entrp">  -1048.73810018 </i>
    <i name="e_0_energy">  -1048.73810018 </i>
   </energy>
  </scstep>
  <scstep>
   <time name="dav">  658.07  663.96</time>
   <time name="total">  667.28  673.35</time>
   <energy>
    <i name="e_fr_energy">  -1048.73830263 </i>
    <i name="e_wo_entrp">  -1048.73830263 </i>
    <i name="e_0_energy">  -1048.73830263 </i>
   </energy>
  </scstep>
  <scstep>
   <time name="dav">  577.66  582.69</time>
   <time name="total">  586.96  592.05</time>
   <energy>
    <i name="e_fr_energy">  -1048.73853907 </i>
    <i name="e_wo_entrp">  -1048.73853907 </i>
    <i name="e_0_energy">  -1048.73853907 </i>
   </energy>
  </scstep>
  <scstep>
   <time name="dav">  591.78  597.54</time>
   <time name="total">  601.29  607.19</time>
   <energy>
    <i name="e_fr_energy">  -1048.73868036 </i>
    <i name="e_wo_entrp">  -1048.73868036 </i>
    <i name="e_0_energy">  -1048.73868036 </i>
   </energy>
  </scstep>
  <scstep>
   <time name="dav">  592.90  598.16</time>
   <time name="total">  602.33  607.84</time>
   <energy>
    <i name="e_fr_energy">  -1048.73876458 </i>
    <i name="e_wo_entrp">  -1048.73876458 </i>
    <i name="e_0_energy">  -1048.73876458 </i>
   </energy>
  </scstep>
  <scstep>
   <time name="dav">  550.04  555.92</time>
   <time name="total">  559.46  565.39</time>
   <energy>
    <i name="e_fr_energy">  -1048.73883152 </i>
    <i name="e_wo_entrp">  -1048.73883152 </i>
    <i name="e_0_energy">  -1048.73883152 </i>
   </energy>
  </scstep>
  <scstep>
   <time name="dav">  564.60  570.51</time>
   <time name="total">  573.88  579.84</time>
   <energy>
    <i name="e_fr_energy">  -1048.73887412 </i>
    <i name="e_wo_entrp">  -1048.73887412 </i>
    <i name="e_0_energy">  -1048.73887412 </i>
   </energy>
  </scstep>
  <scstep>
   <time name="dav">  550.77  556.19</time>
   <time name="total">  560.19  565.66</time>
   <energy>
    <i name="e_fr_energy">  -1048.73892444 </i>
    <i name="e_wo_entrp">  -1048.73892444 </i>
    <i name="e_0_energy">  -1048.73892444 </i>
   </energy>
  </scstep>
  <scstep>
   <time name="dav">  557.90  563.55</time>
   <time name="total">  558.64  564.31</time>
   <energy>
    <i name="alphaZ">     62.28272480 </i>
    <i name="ewald"> 102150.67855722 </i>
    <i name="hartreedc">-120497.80769551 </i>
    <i name="XCdc">   1440.94208908 </i>
    <i name="pawpsdc">  43205.57542787 </i>
    <i name="pawaedc"> -42825.05210798 </i>
    <i name="eentropy">      0.00000000 </i>
    <i name="bandstr">  -7026.04064724 </i>
    <i name="atom">  22440.68271806 </i>
    <i name="e_fr_energy">  -1048.73893371 </i>
    <i name="e_wo_entrp">  -1048.73893371 </i>
    <i name="e_0_energy">  -1048.73893371 </i>
   </energy>
  </scstep>
  <structure>
   <crystal>
    <varray name="basis" >
     <v>      27.15673637       0.00000000       0.00000000 </v>
     <v>       0.00000000      27.15673637       0.00000000 </v>
     <v>       0.00000000       0.00000000      27.15673637 </v>
    </varray>
    <i name="volume">  20027.77616971 </i>
    <varray name="rec_basis" >
     <v>       0.03682328       0.00000000       0.00000000 </v>
     <v>       0.00000000       0.03682328       0.00000000 </v>
     <v>       0.00000000       0.00000000       0.03682328 </v>
    </varray>
   </crystal>
   <varray name="positions" >
    <v>       0.55550408       0.26322836       0.57172495 </v>
    <v>       0.43363303       0.51499355       0.60509455 </v>
    <v>       0.53120518       0.33019039       0.62630332 </v>
    <v>       0.40839991       0.35908893       0.59210545 </v>
    <v>       0.68393964       0.78537953       0.69755256 </v>
    <v>       0.30581912       0.66155201       0.67972243 </v>
    <v>       0.41390276       0.78912073       0.58341116 </v>
    <v>       0.21898538       0.76827908       0.57473260 </v>
    <v>       0.59262121       0.31808695       0.85362625 </v>
    <v>       0.38062227       0.70299327       0.81343842 </v>
    <v>       0.54485261       0.71256256       0.63204956 </v>
    <v>       0.74287826       0.36790884       0.76155257 </v>
    <v>       0.26663876       0.60852242       0.75226754 </v>
    <v>       0.40299937       0.67706525       0.63918251 </v>
    <v>       0.69698066       0.20629886       0.83878171 </v>
    <v>       0.39443833       0.54626971       0.68852419 </v>
    <v>       0.76800644       0.24334085       0.87842119 </v>
    <v>       0.36859950       0.46757731       0.67310643 </v>
    <v>       0.71300423       0.21904302       0.61565989 </v>
    <v>       0.27292705       0.72936428       0.63015902 </v>
    <v>       0.39506581       0.27403599       0.63227636 </v>
    <v>       0.79239559       0.68544000       0.61093765 </v>
    <v>       0.62980425       0.35287243       0.63053536 </v>
    <v>       0.35946912       0.78994191       0.79833531 </v>
    <v>       0.56240219       0.77881831       0.69120646 </v>
    <v>       0.58689708       0.36635488       0.69825733 </v>
    <v>       0.43716919       0.58559328       0.74988210 </v>
    <v>       0.31216407       0.78959173       0.56109554 </v>
    <v>       0.57445520       0.24309084       0.82219094 </v>
    <v>       0.43904898       0.65043360       0.75869989 </v>
    <v>       0.49197510       0.37363708       0.73048484 </v>
    <v>       0.42367160       0.62634969       0.70008314 </v>
    <v>       0.78112173       0.26370302       0.74482232 </v>
    <v>       0.21790867       0.54088289       0.74717486 </v>
    <v>       0.33488294       0.61666590       0.63197476 </v>
    <v>       0.65651768       0.75915504       0.75949526 </v>
    <v>       0.38866371       0.63147402       0.83304417 </v>
[...]
       <r>     2.1126   251.3565   978.0508 </r>
       <r>     2.1246   207.8808   980.5658 </r>
       <r>     2.1366   248.0066   983.4295 </r>
       <r>     2.1486   259.6756   985.8034 </r>
       <r>     2.1606   129.2381   988.5779 </r>
       <r>     2.1726   211.9123   990.6510 </r>
       <r>     2.1846   166.8167   992.7974 </r>
       <r>     2.1966   230.5600   995.2024 </r>
       <r>     2.2086   214.9548   998.0502 </r>
       <r>     2.2206   376.0428  1000.7201 </r>
       <r>     2.2326    79.1273  1003.5427 </r>
       <r>     2.2446   264.0639  1006.5437 </r>
       <r>     2.2566   282.5612  1009.2827 </r>
       <r>     2.2686   233.8842  1012.4621 </r>
       <r>     2.2806   190.4043  1015.0927 </r>
       <r>     2.2926   225.6220  1017.5455 </r>
       <r>     2.3046   227.0326  1019.8905 </r>
       <r>     2.3166   133.9159  1022.8811 </r>
       <r>     2.3286   184.3026  1024.8295 </r>
       <r>     2.3406   272.2479  1027.8376 </r>
       <r>     2.3526   178.6729  1030.1877 </r>
       <r>     2.3646   179.8454  1032.6889 </r>
       <r>     2.3766   287.4194  1035.1340 </r>
       <r>     2.3886   306.7192  1038.6792 </r>
       <r>     2.4006   243.0066  1041.7501 </r>
       <r>     2.4126   235.4671  1044.5219 </r>
       <r>     2.4246   185.3906  1047.2461 </r>
       <r>     2.4366   275.0796  1050.0819 </r>
       <r>     2.4486   144.6579  1052.6571 </r>
       <r>     2.4606   138.8286  1054.6652 </r>
       <r>     2.4726    57.1373  1055.7906 </r>
       <r>     2.4846     0.0000  1056.0000 </r>
       <r>     2.4966     0.0000  1056.0000 </r>
       <r>     2.5086     0.0000  1056.0000 </r>
       <r>     2.5206     0.0000  1056.0000 </r>
       <r>     2.5326     0.0000  1056.0000 </r>
       <r>     2.5446     0.0000  1056.0000 </r>
       <r>     2.5566     0.0000  1056.0000 </r>
       <r>     2.5686     0.0000  1056.0000 </r>
       <r>     2.5806     0.0000  1056.0000 </r>
       <r>     2.5926     0.0000  1056.0000 </r>
       <r>     2.6045     0.0000  1056.0000 </r>
       <r>     2.6165     0.0000  1056.0000 </r>
       <r>     2.6285     0.0000  1056.0000 </r>
       <r>     2.6405     0.0000  1056.0000 </r>
       <r>     2.6525     0.0000  1056.0000 </r>
       <r>     2.6645     0.0000  1056.0000 </r>
       <r>     2.6765     0.0000  1056.0000 </r>
       <r>     2.6885     0.0000  1056.0000 </r>
       <r>     2.7005     0.0000  1056.0000 </r>
       <r>     2.7125     0.0000  1056.0000 </r>
       <r>     2.7245     0.0000  1056.0000 </r>
       <r>     2.7365     0.0000  1056.0000 </r>
       <r>     2.7485     0.0000  1056.0000 </r>
       <r>     2.7605     0.0000  1056.0000 </r>
       <r>     2.7725     0.0000  1056.0000 </r>
       <r>     2.7845     0.0000  1056.0000 </r>
       <r>     2.7965     0.0000  1056.0000 </r>
       <r>     2.8085     0.0000  1056.0000 </r>
       <r>     2.8205     0.0000  1056.0000 </r>
       <r>     2.8325     0.0000  1056.0000 </r>
       <r>     2.8445     0.0000  1056.0000 </r>
       <r>     2.8565     0.0000  1056.0000 </r>
       <r>     2.8685     0.0000  1056.0000 </r>
       <r>     2.8805     0.0000  1056.0000 </r>
       <r>     2.8925     0.0000  1056.0000 </r>
       <r>     2.9045     0.0000  1056.0000 </r>
       <r>     2.9165     0.0000  1056.0000 </r>
       <r>     2.9285     0.0000  1056.0000 </r>
       <r>     2.9405     0.0000  1056.0000 </r>
       <r>     2.9525     0.0000  1056.0000 </r>
       <r>     2.9645     0.0000  1056.0000 </r>
       <r>     2.9765     0.0000  1056.0000 </r>
       <r>     2.9885     0.0000  1056.0000 </r>
       <r>     3.0005     0.0000  1056.0000 </r>
       <r>     3.0125     0.0000  1056.0000 </r>
       <r>     3.0245     0.0000  1056.0000 </r>
       <r>     3.0365     0.0000  1056.0000 </r>
       <r>     3.0485     0.0000  1056.0000 </r>
       <r>     3.0605     0.0000  1056.0000 </r>
       <r>     3.0725     0.0000  1056.0000 </r>
       <r>     3.0845     0.0000  1056.0000 </r>
       <r>     3.0965     0.0000  1056.0000 </r>
       <r>     3.1085     0.0000  1056.0000 </r>
       <r>     3.1204     0.0000  1056.0000 </r>
       <r>     3.1324     0.0000  1056.0000 </r>
       <r>     3.1444     0.0000  1056.0000 </r>
       <r>     3.1564     0.0000  1056.0000 </r>
       <r>     3.1684     0.0000  1056.0000 </r>
       <r>     3.1804     0.0000  1056.0000 </r>
       <r>     3.1924     0.0000  1056.0000 </r>
       <r>     3.2044     0.0000  1056.0000 </r>
       <r>     3.2164     0.0000  1056.0000 </r>
       <r>     3.2284     0.0000  1056.0000 </r>
       <r>     3.2404     0.0000  1056.0000 </r>
       <r>     3.2524     0.0000  1056.0000 </r>
       <r>     3.2644     0.0000  1056.0000 </r>
       <r>     3.2764     0.0000  1056.0000 </r>
       <r>     3.2884     0.0000  1056.0000 </r>
       <r>     3.3004     0.0000  1056.0000 </r>
       <r>     3.3124     0.0000  1056.0000 </r>
       <r>     3.3244     0.0000  1056.0000 </r>
       <r>     3.3364     0.0000  1056.0000 </r>
       <r>     3.3484     0.0000  1056.0000 </r>
       <r>     3.3604     0.0000  1056.0000 </r>
       <r>     3.3724     0.0000  1056.0000 </r>
       <r>     3.3844     0.0000  1056.0000 </r>
       <r>     3.3964     0.0000  1056.0000 </r>
       <r>     3.4084     0.0000  1056.0000 </r>
       <r>     3.4204     0.0000  1056.0000 </r>
       <r>     3.4324     0.0000  1056.0000 </r>
       <r>     3.4444     0.0000  1056.0000 </r>
       <r>     3.4564     0.0000  1056.0000 </r>
       <r>     3.4684     0.0000  1056.0000 </r>
       <r>     3.4804     0.0000  1056.0000 </r>
       <r>     3.4924     0.0000  1056.0000 </r>
       <r>     3.5044     0.0000  1056.0000 </r>
       <r>     3.5164     0.0000  1056.0000 </r>
       <r>     3.5284     0.0000  1056.0000 </r>
       <r>     3.5404     0.0000  1056.0000 </r>
       <r>     3.5524     0.0000  1056.0000 </r>
       <r>     3.5644     0.0000  1056.0000 </r>
       <r>     3.5764     0.0000  1056.0000 </r>
       <r>     3.5884     0.0000  1056.0000 </r>
       <r>     3.6004     0.0000  1056.0000 </r>
       <r>     3.6124     0.0000  1056.0000 </r>
       <r>     3.6243     0.0000  1056.0000 </r>
       <r>     3.6363     0.0000  1056.0000 </r>
       <r>     3.6483     0.0000  1056.0000 </r>
       <r>     3.6603     0.0000  1056.0000 </r>
       <r>     3.6723     0.0000  1056.0000 </r>
       <r>     3.6843     0.0000  1056.0000 </r>
       <r>     3.6963     0.0000  1056.0000 </r>
       <r>     3.7083     0.0000  1056.0000 </r>
       <r>     3.7203     0.0000  1056.0000 </r>
       <r>     3.7323     0.0000  1056.0000 </r>
       <r>     3.7443     0.0000  1056.0000 </r>
       <r>     3.7563     0.0000  1056.0000 </r>
       <r>     3.7683     0.0000  1056.0000 </r>
       <r>     3.7803     0.0000  1056.0000 </r>
       <r>     3.7923     0.0000  1056.0000 </r>
       <r>     3.8043     0.0000  1056.0000 </r>
       <r>     3.8163     0.0000  1056.0000 </r>
       <r>     3.8283     0.0000  1056.0000 </r>
       <r>     3.8403     0.0000  1056.0000 </r>
       <r>     3.8523     0.0000  1056.0000 </r>
       <r>     3.8643     0.0000  1056.0000 </r>
       <r>     3.8763     0.0000  1056.0000 </r>
       <r>     3.8883     0.0000  1056.0000 </r>
       <r>     3.9003     0.0000  1056.0000 </r>
       <r>     3.9123     0.0000  1056.0000 </r>
       <r>     3.9243     0.0000  1056.0000 </r>
       <r>     3.9363     0.0000  1056.0000 </r>
       <r>     3.9483     0.0000  1056.0000 </r>
       <r>     3.9603     0.0000  1056.0000 </r>
       <r>     3.9723     0.0000  1056.0000 </r>
       <r>     3.9843     0.0000  1056.0000 </r>
       <r>     3.9963     0.0000  1056.0000 </r>
       <r>     4.0083     0.0000  1056.0000 </r>
       <r>     4.0203     0.0000  1056.0000 </r>
       <r>     4.0323     0.0000  1056.0000 </r>
       <r>     4.0443     0.0000  1056.0000 </r>
       <r>     4.0563     0.0000  1056.0000 </r>
       <r>     4.0683     0.0000  1056.0000 </r>
       <r>     4.0803     0.0000  1056.0000 </r>
       <r>     4.0923     0.0000  1056.0000 </r>
       <r>     4.1043     0.0000  1056.0000 </r>
       <r>     4.1163     0.0000  1056.0000 </r>
      </set>
     </set>
    </array>
   </total>
  </dos>
 </calculation>
 <structure name="finalpos" >
  <crystal>
   <varray name="basis" >
    <v>      27.15673637       0.00000000       0.00000000 </v>
    <v>       0.00000000      27.15673637       0.00000000 </v>
    <v>       0.00000000       0.00000000      27.15673637 </v>
   </varray>
   <i name="volume">  20027.77616971 </i>
   <varray name="rec_basis" >
    <v>       0.03682328       0.00000000       0.00000000 </v>
    <v>       0.00000000       0.03682328       0.00000000 </v>
    <v>       0.00000000       0.00000000       0.03682328 </v>
   </varray>
  </crystal>
  <varray name="positions" >
   <v>       0.55550408       0.26322836       0.57172495 </v>
   <v>       0.43363303       0.51499355       0.60509455 </v>
   <v>       0.53120518       0.33019039       0.62630332 </v>
   <v>       0.40839991       0.35908893       0.59210545 </v>
   <v>       0.68393964       0.78537953       0.69755256 </v>
   <v>       0.30581912       0.66155201       0.67972243 </v>
   <v>       0.41390276       0.78912073       0.58341116 </v>
   <v>       0.21898538       0.76827908       0.57473260 </v>
   <v>       0.59262121       0.31808695       0.85362625 </v>
   <v>       0.38062227       0.70299327       0.81343842 </v>
   <v>       0.54485261       0.71256256       0.63204956 </v>
   <v>       0.74287826       0.36790884       0.76155257 </v>
   <v>       0.26663876       0.60852242       0.75226754 </v>
   <v>       0.40299937       0.67706525       0.63918251 </v>
   <v>       0.69698066       0.20629886       0.83878171 </v>
   <v>       0.39443833       0.54626971       0.68852419 </v>
   <v>       0.76800644       0.24334085       0.87842119 </v>
   <v>       0.36859950       0.46757731       0.67310643 </v>
   <v>       0.71300423       0.21904302       0.61565989 </v>
   <v>       0.27292705       0.72936428       0.63015902 </v>
   <v>       0.39506581       0.27403599       0.63227636 </v>
   <v>       0.79239559       0.68544000       0.61093765 </v>
   <v>       0.62980425       0.35287243       0.63053536 </v>
   <v>       0.35946912       0.78994191       0.79833531 </v>
   <v>       0.56240219       0.77881831       0.69120646 </v>
   <v>       0.58689708       0.36635488       0.69825733 </v>
   <v>       0.43716919       0.58559328       0.74988210 </v>
   <v>       0.31216407       0.78959173       0.56109554 </v>
   <v>       0.57445520       0.24309084       0.82219094 </v>
   <v>       0.43904898       0.65043360       0.75869989 </v>
   <v>       0.49197510       0.37363708       0.73048484 </v>
   <v>       0.42367160       0.62634969       0.70008314 </v>
   <v>       0.78112173       0.26370302       0.74482232 </v>
   <v>       0.21790867       0.54088289       0.74717486 </v>
   <v>       0.33488294       0.61666590       0.63197476 </v>
   <v>       0.65651768       0.75915504       0.75949526 </v>
   <v>       0.38866371       0.63147402       0.83304417 </v>
   <v>       0.48904213       0.62542284       0.55545819 </v>
   <v>       0.62795722       0.77394617       0.81614602 </v>
   <v>       0.32548639       0.61474890       0.82599556 </v>
   <v>       0.53880990       0.66166544       0.57685143 </v>
   <v>       0.59181994       0.76975060       0.76240617 </v>
   <v>       0.37248138       0.57012314       0.81762809 </v>
   <v>       0.49063730       0.64432645       0.61808324 </v>
   <v>       0.59030062       0.57788837       0.70147645 </v>
   <v>       0.69760257       0.47350806       0.64869511 </v>
   <v>       0.76374853       0.52594733       0.78534079 </v>
   <v>       0.63349873       0.45529196       0.72899270 </v>
   <v>       0.32141447       0.47129387       0.85081297 </v>
   <v>       0.54161066       0.56625521       0.62500966 </v>
   <v>       0.64912653       0.46246439       0.57221246 </v>
   <v>       0.71376717       0.60616136       0.68704659 </v>
   <v>       0.73839092       0.54991490       0.62694836 </v>
   <v>       0.75438106       0.57996893       0.72949463 </v>
   <v>       0.19696543       0.42642987       0.87014258 </v>
   <v>       0.62865055       0.56068051       0.77714795 </v>
   <v>       0.68777847       0.58565921       0.78851831 </v>
   <v>       0.65006405       0.61222279       0.74211246 </v>
   <v>       0.71685851       0.38962975       0.84807181 </v>
   <v>       0.55095458       0.29967642       0.55565995 </v>
   <v>       0.41823134       0.48422104       0.58443666 </v>
   <v>       0.53711677       0.33783603       0.58743370 </v>
   <v>       0.40364379       0.39613426       0.57717401 </v>
   <v>       0.42328975       0.43651354       0.60191959 </v>
   <v>       0.53074968       0.38457578       0.56784040 </v>
   <v>       0.49883121       0.41975087       0.64213794 </v>
   <v>       0.66970414       0.22658588       0.68245834 </v>
   <v>       0.32018089       0.68912530       0.70499939 </v>
   <v>       0.44676754       0.78660977       0.60656673 </v>
   <v>       0.22467275       0.73494744       0.55292439 </v>
   <v>       0.62430543       0.30189759       0.69143260 </v>
   <v>       0.36055356       0.71192217       0.77993292 </v>
   <v>       0.51942652       0.74330592       0.63395405 </v>
   <v>       0.63897032       0.25624007       0.71188647 </v>
   <v>       0.34633350       0.67430979       0.74702692 </v>
   <v>       0.47735921       0.74458843       0.60376000 </v>
   <v>       0.63400286       0.24415538       0.76763725 </v>
   <v>       0.36462733       0.62075073       0.75569767 </v>
   <v>       0.46929345       0.70264900       0.56576395 </v>
   <v>       0.68375480       0.26286566       0.78741205 </v>
   <v>       0.33502880       0.57805085       0.73123050 </v>
   <v>       0.41647744       0.68230152       0.56082118 </v>
   <v>       0.74080914       0.32791066       0.76492709 </v>
   <v>       0.28507912       0.57546580       0.73819369 </v>
   <v>       0.39066029       0.66586399       0.60261416 </v>
   <v>       0.71269161       0.23911795       0.82171965 </v>
   <v>       0.36039340       0.53688240       0.70793533 </v>
   <v>       0.75761080       0.25635123       0.84179336 </v>
   <v>       0.34583789       0.48844469       0.69886136 </v>
   <v>       0.68658465       0.24115834       0.63629228 </v>
   <v>       0.31222743       0.73906577       0.69395310 </v>
   <v>       0.45663363       0.23206887       0.64024305 </v>
   <v>       0.21404810       0.68917572       0.57374465 </v>
   <v>       0.64035410       0.31704080       0.64479887 </v>
   <v>       0.34992012       0.76174814       0.77131110 </v>
   <v>       0.53002054       0.78094411       0.66767651 </v>
   <v>       0.58723950       0.26833946       0.79342818 </v>
   <v>       0.41930878       0.62056988       0.73990238 </v>
   <v>       0.78765351       0.29889759       0.76438498 </v>
   <v>       0.25374436       0.53240764       0.73080099 </v>
   <v>       0.35119200       0.63279754       0.59898406 </v>
   <v>       0.79119664       0.28750449       0.81938946 </v>
   <v>       0.26866329       0.48114371       0.74822730 </v>
   <v>       0.33548981       0.61817455       0.55251199 </v>
   <v>       0.67217904       0.28715539       0.61832356 </v>
   <v>       0.32676932       0.77494121       0.72780848 </v>
   <v>       0.49816731       0.22728369       0.67166913 </v>
   <v>       0.22405043       0.64701337       0.54623103 </v>
   <v>       0.69366318       0.34748626       0.55553007 </v>
   <v>       0.28051710       0.24129716       0.67776346 </v>
   <v>       0.65878379       0.68298763       0.61541462 </v>
   <v>       0.26121101       0.57294488       0.57676458 </v>
   <v>       0.62773919       0.78177083       0.77650714 </v>
   <v>       0.36280790       0.60892528       0.81158549 </v>
   <v>       0.49902713       0.65582192       0.58020562 </v>
   <v>       0.60467017       0.55373973       0.67287695 </v>
   <v>       0.66436952       0.49532583       0.64309907 </v>
   <v>       0.64982986       0.52949381       0.67953682 </v>
   <v>       0.68441391       0.54149854       0.72209752 </v>
   <v>       0.69778997       0.49560240       0.75247782 </v>
   <v>       0.73851317       0.49488986       0.78416497 </v>
   <v>       0.66453338       0.45587707       0.75455207 </v>
   <v>       0.66987425       0.41810745       0.78955746 </v>
   <v>       0.57667971       0.54740977       0.63005263 </v>
   <v>       0.63730443       0.48897421       0.59990180 </v>
   <v>       0.72930443       0.57063794       0.69907892 </v>
   <v>       0.74797124       0.45573458       0.81726217 </v>
   <v>       0.71087986       0.41946107       0.82154763 </v>
   <v>       0.59453237       0.51657325       0.59345251 </v>
   <v>       0.66096485       0.57728750       0.75945663 </v>
   <v>       0.51513106       0.42579836       0.59544498 </v>
   <v>       0.44986916       0.42878911       0.64704841 </v>
   <v>       0.52452505       0.40945876       0.67779696 </v>
   <v>       0.69505066       0.30068648       0.57388753 </v>
   <v>       0.31817809       0.23292723       0.71589798 </v>
   <v>       0.50073647       0.26371998       0.70824128 </v>
   <v>       0.22103499       0.60144246       0.57246614 </v>
   <v>       0.23360090       0.30717880       0.84723479 </v>
   <v>       0.62107092       0.68960255       0.59442347 </v>
   <v>       0.29946929       0.58017737       0.54577887 </v>
   <v>       0.66390377       0.37995082       0.56423354 </v>
   <v>       0.26490587       0.28661925       0.67586374 </v>
   <v>       0.69660240       0.67647243       0.63645911 </v>
   <v>       0.26109576       0.53695160       0.60548490 </v>
   <v>       0.56511939       0.51062483       0.55053973 </v>
   <v>       0.30908901       0.45936054       0.72029173 </v>
   <v>       0.29245520       0.75503969       0.64922869 </v>
   <v>       0.59343910       0.31888270       0.81608272 </v>
   <v>       0.75744098       0.54893428       0.65927744 </v>
   <v>       0.79266369       0.45308807       0.84359300 </v>
   <v>       0.69549328       0.31065306       0.77158427 </v>
   <v>       0.48174155       0.34375900       0.75213027 </v>
   <v>       0.26681036       0.20716861       0.64811736 </v>
   <v>       0.59641033       0.33695814       0.72012639 </v>
   <v>       0.42858458       0.27438617       0.64918303 </v>
   <v>       0.34166509       0.28532013       0.82262576 </v>
   <v>       0.29565516       0.39309302       0.81292474 </v>
   <v>       0.54375488       0.61938751       0.84340221 </v>
   <v>       0.39184967       0.41464090       0.77532226 </v>
   <v>       0.53256541       0.59872562       0.80954427 </v>
   <v>       0.54010022       0.30327553       0.75211143 </v>
   <v>       0.43996149       0.29797739       0.71383917 </v>
   <v>       0.32900926       0.39606282       0.75016272 </v>
   <v>       0.22210395       0.51500422       0.66412067 </v>
   <v>       0.26139694       0.45255780       0.81348920 </v>
   <v>       0.24415115       0.42917690       0.69320673 </v>
   <v>       0.25293237       0.33419162       0.72245544 </v>
   <v>       0.28941467       0.32708544       0.82189453 </v>
   <v>       0.35395446       0.29211771       0.75538015 </v>
   <v>       0.63695425       0.35531971       0.77944171 </v>
   <v>       0.44071600       0.37174544       0.80368173 </v>
   <v>       0.42645544       0.47523358       0.76507771 </v>
   <v>       0.43540645       0.38349539       0.90000004 </v>
   <v>       0.35708550       0.41554675       0.84413391 </v>
   <v>       0.38722610       0.31456551       0.86371976 </v>
  </varray>
 </structure>
</modeling>
