

 Parallel Execution: Process Information
 ==============================================================================
 Rank   Node Name                              NodeID   MyNodeRank  NodeMaster
    0   taurusi6460.taurus.hrsk.tu-dresd          0          0          0
    1   taurusi6460.taurus.hrsk.tu-dresd          0          1         -1
    2   taurusi6460.taurus.hrsk.tu-dresd          0          2         -1
    3   taurusi6460.taurus.hrsk.tu-dresd          0          3         -1
    4   taurusi6460.taurus.hrsk.tu-dresd          0          4         -1
    5   taurusi6460.taurus.hrsk.tu-dresd          0          5         -1
    6   taurusi6460.taurus.hrsk.tu-dresd          0          6         -1
    7   taurusi6460.taurus.hrsk.tu-dresd          0          7         -1
 ==============================================================================


May use up to 0MB of RAM as shared memory on node 0

 *******************************************************************************
 *                                                                             *
 *  --------------------------------                                           *
 *   Amsterdam Modeling Suite (AMS)              2021.106                      *
 *  --------------------------------                                           *
 *                                               r99350 2021-12-03             *
 *                                                                             *
 *                                                                             *
 *                              =================                              *
 *                              |               |                              *
 *                              |     A M S     |                              *
 *                              |               |                              *
 *                              =================                              *
 *                                                                             *
 *                                                                             *
 *   Online information and documentation:  https://www.scm.com/support/       *
 *   E-mail:  support@scm.com   info@scm.com                                   *
 *                                                                             *
 *   Scientific publications using AMS results must be properly referenced     *
 *   See the User Manuals (or the web site) for recommended citations          *
 *   The terms and conditions of the End User License Agreement apply to       *
 *   the use of AMS, https://www.scm.com/license-terms/                        *
 *                                                                             *
 **********************  x86_64_linux_intel / intelmpi  ************************
 
 Licensed to: Prof. Thomas Heine / University of Dresden / Dresden / GERMANY 2022-03-25 13:00:56
 SCM User ID: u20028
  
 AMS 2021.106  RunTime: Jun13-2022 04:29:18  ShM Nodes: 1  Procs: 8

 AMS jobname: ams
 AMS jobid  : 1437215816

 Start   directory: /lustre/scratch2/ws/0/diwo093e-MOF_GFN/200_more/EDUSIF/
 Results directory: /lustre/scratch2/ws/0/diwo093e-MOF_GFN/200_more/EDUSIF/ams.results/
 Scratch directory: /lustre/ssd/ws/diwo093e-EDUSIF-26297080/amstmp_ams_kid0.1437215816/


 Communication costs MPI_COMM_WORLD:      1.597 usec per message,   0.0207 usec per 8-byte item
 Communication costs for intra-node:      1.588 usec per message,   0.0210 usec per 8-byte item

 RNG seed: 1806480372 1197743029 915666067 2038508571 1605065448 -2146426019 -1730745724 1798516438
       ***************************
       *  GEOMETRY OPTIMIZATION  *
       ***************************

Optimization Method                    Quasi Newton
Optimization Coordinates               Delocalized Coordinates
Optimize lattice                       F
 
 ------------------------------------------------------
 Convergence criteria (Hartree,Angstrom)
 ------------------------------------------------------
 Maximum gradient               0.001000000000
 Maximum rms gradient           0.000666666667
 Maximum step allowed           0.010000000000
 Maximum rms step allowed       0.006666666667
 Maximum energy change allowe   0.004240000000
 Maximum stress energy allowe   0.000500000000
 
Initial model Hessian                  Automatic Hessian
 
------------------------------------
Quasi-Newton Optimizer Parameters
------------------------------------
Hessian Update Method                  BFGS
Maximum number of steps                 2544
First GDIIS cycle                          0
Maximum GDIIS vectors                      0
Trust radius (bohr)                        0.200000
Trust radius varies                        T
Constraints converged at all steps         T
Use projector                              T
 
 Rigid motions settings for: old optimizer
 Atomic rotations (x,y,z):     F F F
 Atomic translations (x,y,z):  T T T
 Tolerance:                   1.000000000000000E-006
 
--------
Geometry
--------
Formula: C192H96O104Zn32
Atoms
  Index Symbol   x (angstrom)   y (angstrom)   z (angstrom)
      1     Zn     7.57859216     5.33740784     5.33740784
      2      O     7.28126584     5.63395920     3.46148800
      3      C     6.45800000     6.45800000     2.87510160
      4      C     6.45800000     6.45800000     1.38976160
      5      C     5.60812720     7.30787280     0.69488080
      6      H     5.03982320     7.87617680     1.15727360
      7      C     5.60812720     7.30787280    25.13711920
      8      H     5.03982320     7.87617680    24.67472640
      9      C     6.45800000     6.45800000    24.44223840
     10      C     7.30787280     5.60812720    25.13711920
     11      H     7.87617680     5.03982320    24.67472640
     12      C     7.30787280     5.60812720     0.69488080
     13      H     7.87617680     5.03982320     1.15727360
     14      C     6.45800000     6.45800000    22.95689840
     15      O     5.63395920     7.28126584    22.37051200
     16     Zn     5.33740784     7.57859216    20.49459216
     17      O     3.46148800     7.28204080    20.19726584
     18      C     2.87510160     6.45800000    19.37400000
     19      C     1.38976160     6.45800000    19.37400000
     20      C     0.69488080     5.60812720    18.52412720
     21      H     1.15727360     5.03982320    17.95582320
     22      C    25.13711920     5.60812720    18.52412720
     23      H    24.67472640     5.03982320    17.95582320
     24      C    24.44223840     6.45800000    19.37400000
     25      C    25.13711920     7.30787280    20.22387280
     26      H    24.67472640     7.87617680    20.79217680
     27      C     0.69488080     7.30787280    20.22387280
     28      H     1.15727360     7.87617680    20.79217680
     29      C    22.95689840     6.45800000    19.37400000
     30      O    22.37051200     5.63473416    18.54995920
     31     Zn    20.49459216     5.33740784    18.25340784
     32      O    20.19726584     5.63395920    16.37748800
     33      C    19.37400000     6.45800000    15.79110160
     34      C    19.37400000     6.45800000    14.30576160
     35      C    18.52412720     7.30787280    13.61088080
     36      H    17.95582320     7.87617680    14.07327360
     37      C    18.52412720     7.30787280    12.22111920
     38      H    17.95582320     7.87617680    11.75872640
     39      C    19.37400000     6.45800000    11.52623840
     40      C    20.22387280     5.60812720    12.22111920
     41      H    20.79217680     5.03982320    11.75872640
     42      C    20.22387280     5.60812720    13.61088080
     43      H    20.79217680     5.03982320    14.07327360
     44      C    19.37400000     6.45800000    10.04089840
     45      O    20.19804080     5.63473416     9.45451200
     46     Zn    20.49459216     5.33740784     7.57859216
     47      O    20.19726584     3.46148800     7.28204080
     48      C    19.37400000     2.87510160     6.45800000
     49      C    19.37400000     1.38976160     6.45800000
     50      C    18.52412720     0.69488080     5.60812720
     51      H    17.95582320     1.15727360     5.03982320
     52      C    18.52412720    25.13711920     5.60812720
     53      H    17.95582320    24.67472640     5.03982320
     54      C    19.37400000    24.44223840     6.45800000
     55      C    20.22387280    25.13711920     7.30787280
     56      H    20.79217680    24.67472640     7.87617680
     57      C    20.22387280     0.69488080     7.30787280
     58      H    20.79217680     1.15727360     7.87617680
     59      C    19.37400000    22.95689840     6.45800000
     60      O    18.54995920    22.37051200     5.63473416
     61     Zn    18.25340784    20.49459216     5.33740784
     62      O    16.37748800    20.19726584     5.63395920
     63      C    15.79110160    19.37400000     6.45800000
     64      C    14.30576160    19.37400000     6.45800000
     65      C    13.61088080    18.52412720     7.30787280
     66      H    14.07327360    17.95582320     7.87617680
     67      C    12.22111920    18.52412720     7.30787280
     68      H    11.75872640    17.95582320     7.87617680
     69      C    11.52623840    19.37400000     6.45800000
     70      C    12.22111920    20.22387280     5.60812720
     71      H    11.75872640    20.79217680     5.03982320
     72      C    13.61088080    20.22387280     5.60812720
     73      H    14.07327360    20.79217680     5.03982320
     74      C    10.04089840    19.37400000     6.45800000
     75      O     9.45451200    20.19804080     5.63473416
     76     Zn     7.57859216    20.49459216     5.33740784
     77      O     7.28126584    22.37051200     5.63395920
     78      C     6.45800000    22.95689840     6.45800000
     79      C     6.45800000    24.44223840     6.45800000
     80      C     5.60812720    25.13711920     7.30787280
     81      H     5.03982320    24.67472640     7.87617680
     82      C     5.60812720     0.69488080     7.30787280
     83      H     5.03982320     1.15727360     7.87617680
     84      C     6.45800000     1.38976160     6.45800000
     85      C     7.30787280     0.69488080     5.60812720
     86      H     7.87617680     1.15727360     5.03982320
     87      C     7.30787280    25.13711920     5.60812720
     88      H     7.87617680    24.67472640     5.03982320
     89      C     6.45800000     2.87510160     6.45800000
     90      O     5.63395920     3.46148800     7.28126584
     91     Zn     5.33740784     5.33740784     7.57859216
     92      O     3.46148800     5.63473416     7.28204080
     93      C     2.87510160     6.45800000     6.45800000
     94      C     1.38976160     6.45800000     6.45800000
     95      C     0.69488080     5.60812720     7.30787280
     96      H     1.15727360     5.03982320     7.87617680
     97      C    25.13711920     5.60812720     7.30787280
     98      H    24.67472640     5.03982320     7.87617680
     99      C    24.44223840     6.45800000     6.45800000
    100      C    25.13711920     7.30787280     5.60812720
    101      H    24.67472640     7.87617680     5.03982320
    102      C     0.69488080     7.30787280     5.60812720
    103      H     1.15727360     7.87617680     5.03982320
    104      C    22.95689840     6.45800000     6.45800000
    105      O    22.37051200     5.63395920     7.28126584
    106      O    22.37051200     7.28204080     5.63473416
    107     Zn    20.49459216     7.57859216     5.33740784
    108      O    20.19804080     7.28126584     3.46148800
    109      C    19.37400000     6.45800000     2.87510160
    110      C    19.37400000     6.45800000     1.38976160
    111      C    18.52412720     5.60812720     0.69488080
    112      H    17.95582320     5.03982320     1.15727360
    113      C    18.52412720     5.60812720    25.13711920
    114      H    17.95582320     5.03982320    24.67472640
    115      C    19.37400000     6.45800000    24.44223840
    116      C    20.22387280     7.30787280    25.13711920
    117      H    20.79217680     7.87617680    24.67472640
    118      C    20.22387280     7.30787280     0.69488080
    119      H    20.79217680     7.87617680     1.15727360
    120      C    19.37400000     6.45800000    22.95689840
    121      O    18.55073416     5.63395920    22.37051200
    122     Zn    18.25340784     5.33740784    20.49459216
    123      O    18.54995920     3.46148800    20.19726584
    124      C    19.37400000     2.87510160    19.37400000
    125      C    19.37400000     1.38976160    19.37400000
    126      C    18.52412720     0.69488080    20.22387280
    127      H    17.95582320     1.15727360    20.79217680
    128      C    18.52412720    25.13711920    20.22387280
    129      H    17.95582320    24.67472640    20.79217680
    130      C    19.37400000    24.44223840    19.37400000
    131      C    20.22387280    25.13711920    18.52412720
    132      H    20.79217680    24.67472640    17.95582320
    133      C    20.22387280     0.69488080    18.52412720
    134      H    20.79217680     1.15727360    17.95582320
    135      C    19.37400000    22.95689840    19.37400000
    136      O    20.19726584    22.37051200    18.54995920
    137     Zn    20.49459216    20.49459216    18.25340784
    138      O    20.19804080    20.19726584    16.37748800
    139      C    19.37400000    19.37400000    15.79110160
    140      C    19.37400000    19.37400000    14.30576160
    141      C    18.52412720    18.52412720    13.61088080
    142      H    17.95582320    17.95582320    14.07327360
    143      C    18.52412720    18.52412720    12.22111920
    144      H    17.95582320    17.95582320    11.75872640
    145      C    19.37400000    19.37400000    11.52623840
    146      C    20.22387280    20.22387280    12.22111920
    147      H    20.79217680    20.79217680    11.75872640
    148      C    20.22387280    20.22387280    13.61088080
    149      H    20.79217680    20.79217680    14.07327360
    150      C    19.37400000    19.37400000    10.04089840
    151      O    18.55073416    18.54995920     9.45451200
    152     Zn    18.25340784    18.25340784     7.57859216
    153      O    18.54995920    16.37748800     7.28126584
    154      C    19.37400000    15.79110160     6.45800000
    155      C    19.37400000    14.30576160     6.45800000
    156      C    18.52412720    13.61088080     7.30787280
    157      H    17.95582320    14.07327360     7.87617680
    158      C    18.52412720    12.22111920     7.30787280
    159      H    17.95582320    11.75872640     7.87617680
    160      C    19.37400000    11.52623840     6.45800000
    161      C    20.22387280    12.22111920     5.60812720
    162      H    20.79217680    11.75872640     5.03982320
    163      C    20.22387280    13.61088080     5.60812720
    164      H    20.79217680    14.07327360     5.03982320
    165      C    19.37400000    10.04089840     6.45800000
    166      O    20.19726584     9.45451200     5.63395920
    167      O    18.55073416     9.45451200     7.28204080
    168     Zn    18.25340784     7.57859216     7.57859216
    169      O    16.37748800     7.28204080     7.28126584
    170      C    15.79110160     6.45800000     6.45800000
    171      C    14.30576160     6.45800000     6.45800000
    172      C    13.61088080     5.60812720     5.60812720
    173      H    14.07327360     5.03982320     5.03982320
    174      C    12.22111920     5.60812720     5.60812720
    175      H    11.75872640     5.03982320     5.03982320
    176      C    11.52623840     6.45800000     6.45800000
    177      C    12.22111920     7.30787280     7.30787280
    178      H    11.75872640     7.87617680     7.87617680
    179      C    13.61088080     7.30787280     7.30787280
    180      H    14.07327360     7.87617680     7.87617680
    181      C    10.04089840     6.45800000     6.45800000
    182      O     9.45451200     5.63473416     5.63395920
    183      O     9.45451200     7.28126584     7.28204080
    184     Zn     7.57859216     7.57859216     7.57859216
    185      O     7.28126584     7.28204080     9.45451200
    186      C     6.45800000     6.45800000    10.04089840
    187      C     6.45800000     6.45800000    11.52623840
    188      C     5.60812720     5.60812720    12.22111920
    189      H     5.03982320     5.03982320    11.75872640
    190      C     5.60812720     5.60812720    13.61088080
    191      H     5.03982320     5.03982320    14.07327360
    192      C     6.45800000     6.45800000    14.30576160
    193      C     7.30787280     7.30787280    13.61088080
    194      H     7.87617680     7.87617680    14.07327360
    195      C     7.30787280     7.30787280    12.22111920
    196      H     7.87617680     7.87617680    11.75872640
    197      C     6.45800000     6.45800000    15.79110160
    198      O     5.63395920     5.63473416    16.37748800
    199     Zn     5.33740784     5.33740784    18.25340784
    200      O     3.46148800     5.63395920    18.55073416
    201      O     5.63473416     3.46148800    18.54995920
    202      C     6.45800000     2.87510160    19.37400000
    203      C     6.45800000     1.38976160    19.37400000
    204      C     5.60812720     0.69488080    18.52412720
    205      H     5.03982320     1.15727360    17.95582320
    206      C     5.60812720    25.13711920    18.52412720
    207      H     5.03982320    24.67472640    17.95582320
    208      C     6.45800000    24.44223840    19.37400000
    209      C     7.30787280    25.13711920    20.22387280
    210      H     7.87617680    24.67472640    20.79217680
    211      C     7.30787280     0.69488080    20.22387280
    212      H     7.87617680     1.15727360    20.79217680
    213      C     6.45800000    22.95689840    19.37400000
    214      O     5.63395920    22.37051200    18.55073416
    215     Zn     5.33740784    20.49459216    18.25340784
    216      O     3.46148800    20.19726584    18.54995920
    217      C     2.87510160    19.37400000    19.37400000
    218      C     1.38976160    19.37400000    19.37400000
    219      C     0.69488080    18.52412720    20.22387280
    220      H     1.15727360    17.95582320    20.79217680
    221      C    25.13711920    18.52412720    20.22387280
    222      H    24.67472640    17.95582320    20.79217680
    223      C    24.44223840    19.37400000    19.37400000
    224      C    25.13711920    20.22387280    18.52412720
    225      H    24.67472640    20.79217680    17.95582320
    226      C     0.69488080    20.22387280    18.52412720
    227      H     1.15727360    20.79217680    17.95582320
    228      C    22.95689840    19.37400000    19.37400000
    229      O    22.37051200    20.19804080    18.55073416
    230      O    22.37051200    18.54995920    20.19726584
    231     Zn    20.49459216    18.25340784    20.49459216
    232      O    20.19804080    18.55073416    22.37051200
    233      C    19.37400000    19.37400000    22.95689840
    234      C    19.37400000    19.37400000    24.44223840
    235      C    18.52412720    20.22387280    25.13711920
    236      H    17.95582320    20.79217680    24.67472640
    237      C    18.52412720    20.22387280     0.69488080
    238      H    17.95582320    20.79217680     1.15727360
    239      C    19.37400000    19.37400000     1.38976160
    240      C    20.22387280    18.52412720     0.69488080
    241      H    20.79217680    17.95582320     1.15727360
    242      C    20.22387280    18.52412720    25.13711920
    243      H    20.79217680    17.95582320    24.67472640
    244      C    19.37400000    19.37400000     2.87510160
    245      O    20.19726584    18.54995920     3.46148800
    246     Zn    20.49459216    18.25340784     5.33740784
    247      O    22.37051200    18.55073416     5.63395920
    248      C    22.95689840    19.37400000     6.45800000
    249      C    24.44223840    19.37400000     6.45800000
    250      C    25.13711920    18.52412720     5.60812720
    251      H    24.67472640    17.95582320     5.03982320
    252      C     0.69488080    18.52412720     5.60812720
    253      H     1.15727360    17.95582320     5.03982320
    254      C     1.38976160    19.37400000     6.45800000
    255      C     0.69488080    20.22387280     7.30787280
    256      H     1.15727360    20.79217680     7.87617680
    257      C    25.13711920    20.22387280     7.30787280
    258      H    24.67472640    20.79217680     7.87617680
    259      C     2.87510160    19.37400000     6.45800000
    260      O     3.46148800    18.54995920     5.63473416
    261     Zn     5.33740784    18.25340784     5.33740784
    262      O     5.63395920    18.55073416     3.46148800
    263      C     6.45800000    19.37400000     2.87510160
    264      C     6.45800000    19.37400000     1.38976160
    265      C     5.60812720    18.52412720     0.69488080
    266      H     5.03982320    17.95582320     1.15727360
    267      C     5.60812720    18.52412720    25.13711920
    268      H     5.03982320    17.95582320    24.67472640
    269      C     6.45800000    19.37400000    24.44223840
    270      C     7.30787280    20.22387280    25.13711920
    271      H     7.87617680    20.79217680    24.67472640
    272      C     7.30787280    20.22387280     0.69488080
    273      H     7.87617680    20.79217680     1.15727360
    274      C     6.45800000    19.37400000    22.95689840
    275      O     5.63473416    18.54995920    22.37051200
    276     Zn     5.33740784    18.25340784    20.49459216
    277      O     5.63395920    16.37748800    20.19726584
    278      C     6.45800000    15.79110160    19.37400000
    279      C     6.45800000    14.30576160    19.37400000
    280      C     5.60812720    13.61088080    20.22387280
    281      H     5.03982320    14.07327360    20.79217680
    282      C     5.60812720    12.22111920    20.22387280
    283      H     5.03982320    11.75872640    20.79217680
    284      C     6.45800000    11.52623840    19.37400000
    285      C     7.30787280    12.22111920    18.52412720
    286      H     7.87617680    11.75872640    17.95582320
    287      C     7.30787280    13.61088080    18.52412720
    288      H     7.87617680    14.07327360    17.95582320
    289      C     6.45800000    10.04089840    19.37400000
    290      O     5.63473416     9.45451200    20.19804080
    291      O     7.28126584     9.45451200    18.54995920
    292     Zn     7.57859216     7.57859216    18.25340784
    293      O     7.28204080     7.28126584    16.37748800
    294      O     9.45451200     7.28204080    18.55073416
    295      C    10.04089840     6.45800000    19.37400000
    296      C    11.52623840     6.45800000    19.37400000
    297      C    12.22111920     7.30787280    18.52412720
    298      H    11.75872640     7.87617680    17.95582320
    299      C    13.61088080     7.30787280    18.52412720
    300      H    14.07327360     7.87617680    17.95582320
    301      C    14.30576160     6.45800000    19.37400000
    302      C    13.61088080     5.60812720    20.22387280
    303      H    14.07327360     5.03982320    20.79217680
    304      C    12.22111920     5.60812720    20.22387280
    305      H    11.75872640     5.03982320    20.79217680
    306      C    15.79110160     6.45800000    19.37400000
    307      O    16.37748800     5.63473416    20.19804080
    308      O    16.37748800     7.28126584    18.54995920
    309     Zn    18.25340784     7.57859216    18.25340784
    310      O    18.55073416     7.28204080    16.37748800
    311      O    18.54995920     9.45451200    18.55073416
    312      C    19.37400000    10.04089840    19.37400000
    313      C    19.37400000    11.52623840    19.37400000
    314      C    18.52412720    12.22111920    18.52412720
    315      H    17.95582320    11.75872640    17.95582320
    316      C    18.52412720    13.61088080    18.52412720
    317      H    17.95582320    14.07327360    17.95582320
    318      C    19.37400000    14.30576160    19.37400000
    319      C    20.22387280    13.61088080    20.22387280
    320      H    20.79217680    14.07327360    20.79217680
    321      C    20.22387280    12.22111920    20.22387280
    322      H    20.79217680    11.75872640    20.79217680
    323      C    19.37400000    15.79110160    19.37400000
    324      O    18.55073416    16.37748800    18.54995920
    325     Zn    18.25340784    18.25340784    18.25340784
    326      O    16.37748800    18.54995920    18.55073416
    327      C    15.79110160    19.37400000    19.37400000
    328      C    14.30576160    19.37400000    19.37400000
    329      C    13.61088080    18.52412720    18.52412720
    330      H    14.07327360    17.95582320    17.95582320
    331      C    12.22111920    18.52412720    18.52412720
    332      H    11.75872640    17.95582320    17.95582320
    333      C    11.52623840    19.37400000    19.37400000
    334      C    12.22111920    20.22387280    20.22387280
    335      H    11.75872640    20.79217680    20.79217680
    336      C    13.61088080    20.22387280    20.22387280
    337      H    14.07327360    20.79217680    20.79217680
    338      C    10.04089840    19.37400000    19.37400000
    339      O     9.45451200    18.55073416    18.54995920
    340     Zn     7.57859216    18.25340784    18.25340784
    341      O     7.28126584    18.54995920    16.37748800
    342      C     6.45800000    19.37400000    15.79110160
    343      C     6.45800000    19.37400000    14.30576160
    344      C     5.60812720    20.22387280    13.61088080
    345      H     5.03982320    20.79217680    14.07327360
    346      C     5.60812720    20.22387280    12.22111920
    347      H     5.03982320    20.79217680    11.75872640
    348      C     6.45800000    19.37400000    11.52623840
    349      C     7.30787280    18.52412720    12.22111920
    350      H     7.87617680    17.95582320    11.75872640
    351      C     7.30787280    18.52412720    13.61088080
    352      H     7.87617680    17.95582320    14.07327360
    353      C     6.45800000    19.37400000    10.04089840
    354      O     5.63395920    20.19726584     9.45451200
    355     Zn     5.33740784    20.49459216     7.57859216
    356      O     3.46148800    20.19804080     7.28126584
    357      O     5.63473416    22.37051200     7.28204080
    358      O     6.45800000    19.37400000     6.45800000
    359     Zn     7.57859216    18.25340784     7.57859216
    360      O     7.28204080    18.55073416     9.45451200
    361      O     7.28126584    16.37748800     7.28204080
    362      C     6.45800000    15.79110160     6.45800000
    363      C     6.45800000    14.30576160     6.45800000
    364      C     5.60812720    13.61088080     5.60812720
    365      H     5.03982320    14.07327360     5.03982320
    366      C     5.60812720    12.22111920     5.60812720
    367      H     5.03982320    11.75872640     5.03982320
    368      C     6.45800000    11.52623840     6.45800000
    369      C     7.30787280    12.22111920     7.30787280
    370      H     7.87617680    11.75872640     7.87617680
    371      C     7.30787280    13.61088080     7.30787280
    372      H     7.87617680    14.07327360     7.87617680
    373      C     6.45800000    10.04089840     6.45800000
    374      O     5.63395920     9.45451200     5.63473416
    375     Zn     5.33740784     7.57859216     5.33740784
    376      O     3.46148800     7.28126584     5.63395920
    377      O     5.63473416     7.28204080     3.46148800
    378      O     6.45800000     6.45800000     6.45800000
    379      O     7.28204080     9.45451200     7.28126584
    380      O     5.63473416    16.37748800     5.63395920
    381      O     9.45451200    18.54995920     7.28126584
    382      O     5.63473416    20.19804080    16.37748800
    383      O     7.28204080    16.37748800    18.55073416
    384      O     6.45800000    19.37400000    19.37400000
    385     Zn     7.57859216    20.49459216    20.49459216
    386      O     7.28204080    22.37051200    20.19726584
    387      O     7.28126584    20.19804080    22.37051200
    388      O     9.45451200    20.19726584    20.19804080
    389      O    16.37748800    20.19804080    20.19726584
    390     Zn    18.25340784    20.49459216    20.49459216
    391      O    18.55073416    22.37051200    20.19804080
    392      O    18.54995920    20.19726584    22.37051200
    393      O    19.37400000    19.37400000    19.37400000
    394      O    18.54995920    18.55073416    16.37748800
    395      O    20.19726584    16.37748800    20.19804080
    396      O    20.19804080     9.45451200    20.19726584
    397     Zn    20.49459216     7.57859216    20.49459216
    398      O    20.19726584     7.28204080    22.37051200
    399      O    19.37400000     6.45800000    19.37400000
    400      O    22.37051200     7.28126584    20.19804080
    401      O     9.45451200     5.63395920    20.19726584
    402     Zn     7.57859216     5.33740784    20.49459216
    403      O     7.28204080     5.63473416    22.37051200
    404      O     7.28126584     3.46148800    20.19804080
    405      O     6.45800000     6.45800000    19.37400000
    406      O     3.46148800    18.55073416    20.19804080
    407      O     7.28204080    20.19726584     3.46148800
    408      O    22.37051200    20.19726584     7.28204080
    409     Zn    20.49459216    20.49459216     7.57859216
    410      O    20.19804080    22.37051200     7.28126584
    411      O    20.19726584    20.19804080     9.45451200
    412      O    19.37400000    19.37400000     6.45800000
    413      O    20.19804080    16.37748800     5.63473416
    414      O    18.55073416    20.19804080     3.46148800
    415      O     5.63473416     5.63395920     9.45451200
    416      O    16.37748800     5.63395920     5.63473416
    417     Zn    18.25340784     5.33740784     5.33740784
    418      O    18.54995920     5.63473416     3.46148800
    419      O    18.55073416     3.46148800     5.63395920
    420      O    19.37400000     6.45800000     6.45800000
    421      O    18.54995920     7.28126584     9.45451200
    422      O    16.37748800    18.55073416     7.28204080
    423      O    20.19804080     3.46148800    18.55073416
    424      O     7.28204080     3.46148800     5.63473416
 
Lattice vectors (angstrom)
      1    25.83200000     0.00000000     0.00000000
      2     0.00000000    25.83200000     0.00000000
      3     0.00000000     0.00000000    25.83200000
 
Unit cell volume (angstrom^3)     17237.49273
 
Total System Charge             0.00000
 
 
-------------------------
DFTB Engine configuration
-------------------------
DFTB Resources dir                     /projects/m_chemie/ADF/adf2021.impi/atomicdata/DFTB/GFN1-xTB
 
SCC convergence enabled.
Maximum SCC cycles                       500
SCC charge convergence                   0.000000010000
SCC charge mixing                        0.150000000000
DIIS max dimension                       20
DIIS maximum coeff.                     10.000000000000
Adaptive SCC charge mixing             T
Adaptive SCC mixing strategy              3
Spin polarization                      F
Orbital-dependent SCC                  T
Orbital fill strategy                  Fermi
Fermi temperature (kelvin)                     300.0000
  ... kT (Hartree)                               0.0010
Use of symmetry                        T
Radial function extrapolation method   Auto

 Settings for Grimme D3 dispersion correction

      damping                        BJ
      s6                          1.000
      s8                          2.400
      a1                          0.630
      a2                          5.000

 Other (technical) parameters

      alpha                      14.000
      version                         4
 

---------------------
Periodic DFTB options
---------------------
 kpoints config
 grid method with params
Assume insulator                        F
Ewald tolerance                    1.00E-10
Ewald range factor                  2.00

 BZStruct config
 ---------------
 Enabled        T
 Automatic      T
 CalcFatBands   T
 useSymmetry    T
 deltaK          0.100000000000000     
 
Number of symmetry operators: 96
 Using automatic Hessian for delocalized coordinates.
 
----------------------------------------------------------------------
Geometry Convergence after Step   1       (Hartree/Angstrom,Angstrom)
----------------------------------------------------------------------
current energy                             -972.55617915 Hartree
energy change                    -972.55617915     0.00424000    F
constrained gradient max            0.20125316     0.00100000    F
constrained gradient rms            0.12932783     0.00066667    F
gradient max                        0.20125316
gradient rms                        0.12932783
cart. step max                      0.00685290     0.01000000    T
cart. step rms                      0.00311577     0.00666667    T
 
 
--------
Geometry
--------
Formula: C192H96O104Zn32
Atoms
  Index Symbol   x (angstrom)   y (angstrom)   z (angstrom)
      1     Zn     7.57819070     5.33780930     5.33780930
      2      O     7.27988347     5.63534241     3.46159768
      3      C     6.45800000     6.45800000     2.87645234
      4      C     6.45800000     6.45800000     1.39034797
      5      C     5.60761385     7.30838623     0.69508386
      6      H     5.03297041     7.88302970     1.16266420
      7      C     5.60761377     7.30838615    25.13691614
      8      H     5.03297030     7.88302959    24.66933580
      9      C     6.45800000     6.45800000    24.44165203
     10      C     7.30838623     5.60761385    25.13691614
     11      H     7.88302970     5.03297041    24.66933580
     12      C     7.30838615     5.60761377     0.69508386
     13      H     7.88302959     5.03297030     1.16266420
     14      C     6.45800000     6.45800000    22.95554766
     15      O     5.63534241     7.27988347    22.37040232
     16     Zn     5.33780930     7.57819070    20.49419070
     17      O     3.46159768     7.28065759    20.19588347
     18      C     2.87645234     6.45800000    19.37400000
     19      C     1.39034797     6.45800000    19.37400000
     20      C     0.69508386     5.60761377    18.52361385
     21      H     1.16266420     5.03297030    17.94897041
     22      C    25.13691614     5.60761385    18.52361377
     23      H    24.66933580     5.03297041    17.94897030
     24      C    24.44165203     6.45800000    19.37400000
     25      C    25.13691614     7.30838615    20.22438623
     26      H    24.66933580     7.88302959    20.79902970
     27      C     0.69508386     7.30838623    20.22438615
     28      H     1.16266420     7.88302970    20.79902959
     29      C    22.95554766     6.45800000    19.37400000
     30      O    22.37040232     5.63611653    18.55134241
     31     Zn    20.49419070     5.33780930    18.25380930
     32      O    20.19588347     5.63534241    16.37759768
     33      C    19.37400000     6.45800000    15.79245234
     34      C    19.37400000     6.45800000    14.30634797
     35      C    18.52361385     7.30838623    13.61108386
     36      H    17.94897041     7.88302970    14.07866420
     37      C    18.52361377     7.30838615    12.22091614
     38      H    17.94897030     7.88302959    11.75333580
     39      C    19.37400000     6.45800000    11.52565203
     40      C    20.22438623     5.60761385    12.22091614
     41      H    20.79902970     5.03297041    11.75333580
     42      C    20.22438615     5.60761377    13.61108386
     43      H    20.79902959     5.03297030    14.07866420
     44      C    19.37400000     6.45800000    10.03954766
     45      O    20.19665759     5.63611653     9.45440232
     46     Zn    20.49419070     5.33780930     7.57819070
     47      O    20.19588347     3.46159768     7.28065759
     48      C    19.37400000     2.87645234     6.45800000
     49      C    19.37400000     1.39034797     6.45800000
     50      C    18.52361385     0.69508386     5.60761377
     51      H    17.94897041     1.16266420     5.03297030
     52      C    18.52361377    25.13691614     5.60761385
     53      H    17.94897030    24.66933580     5.03297041
     54      C    19.37400000    24.44165203     6.45800000
     55      C    20.22438623    25.13691614     7.30838615
     56      H    20.79902970    24.66933580     7.88302959
     57      C    20.22438615     0.69508386     7.30838623
     58      H    20.79902959     1.16266420     7.88302970
     59      C    19.37400000    22.95554766     6.45800000
     60      O    18.55134241    22.37040232     5.63611653
     61     Zn    18.25380930    20.49419070     5.33780930
     62      O    16.37759768    20.19588347     5.63534241
     63      C    15.79245234    19.37400000     6.45800000
     64      C    14.30634797    19.37400000     6.45800000
     65      C    13.61108386    18.52361385     7.30838623
     66      H    14.07866420    17.94897041     7.88302970
     67      C    12.22091614    18.52361377     7.30838615
     68      H    11.75333580    17.94897030     7.88302959
     69      C    11.52565203    19.37400000     6.45800000
     70      C    12.22091614    20.22438623     5.60761385
     71      H    11.75333580    20.79902970     5.03297041
     72      C    13.61108386    20.22438615     5.60761377
     73      H    14.07866420    20.79902959     5.03297030
     74      C    10.03954766    19.37400000     6.45800000
     75      O     9.45440232    20.19665759     5.63611653
     76     Zn     7.57819070    20.49419070     5.33780930
     77      O     7.27988347    22.37040232     5.63534241
     78      C     6.45800000    22.95554766     6.45800000
     79      C     6.45800000    24.44165203     6.45800000
     80      C     5.60761385    25.13691614     7.30838623
     81      H     5.03297041    24.66933580     7.88302970
     82      C     5.60761377     0.69508386     7.30838615
     83      H     5.03297030     1.16266420     7.88302959
     84      C     6.45800000     1.39034797     6.45800000
     85      C     7.30838623     0.69508386     5.60761385
     86      H     7.88302970     1.16266420     5.03297041
     87      C     7.30838615    25.13691614     5.60761377
     88      H     7.88302959    24.66933580     5.03297030
     89      C     6.45800000     2.87645234     6.45800000
     90      O     5.63534241     3.46159768     7.27988347
     91     Zn     5.33780930     5.33780930     7.57819070
     92      O     3.46159768     5.63611653     7.28065759
     93      C     2.87645234     6.45800000     6.45800000
     94      C     1.39034797     6.45800000     6.45800000
     95      C     0.69508386     5.60761385     7.30838623
     96      H     1.16266420     5.03297041     7.88302970
     97      C    25.13691614     5.60761377     7.30838615
     98      H    24.66933580     5.03297030     7.88302959
     99      C    24.44165203     6.45800000     6.45800000
    100      C    25.13691614     7.30838623     5.60761385
    101      H    24.66933580     7.88302970     5.03297041
    102      C     0.69508386     7.30838615     5.60761377
    103      H     1.16266420     7.88302959     5.03297030
    104      C    22.95554766     6.45800000     6.45800000
    105      O    22.37040232     5.63534241     7.27988347
    106      O    22.37040232     7.28065759     5.63611653
    107     Zn    20.49419070     7.57819070     5.33780930
    108      O    20.19665759     7.27988347     3.46159768
    109      C    19.37400000     6.45800000     2.87645234
    110      C    19.37400000     6.45800000     1.39034797
    111      C    18.52361377     5.60761385     0.69508386
    112      H    17.94897030     5.03297041     1.16266420
    113      C    18.52361385     5.60761377    25.13691614
    114      H    17.94897041     5.03297030    24.66933580
    115      C    19.37400000     6.45800000    24.44165203
    116      C    20.22438615     7.30838623    25.13691614
    117      H    20.79902959     7.88302970    24.66933580
    118      C    20.22438623     7.30838615     0.69508386
    119      H    20.79902970     7.88302959     1.16266420
    120      C    19.37400000     6.45800000    22.95554766
    121      O    18.55211653     5.63534241    22.37040232
    122     Zn    18.25380930     5.33780930    20.49419070
    123      O    18.55134241     3.46159768    20.19588347
    124      C    19.37400000     2.87645234    19.37400000
    125      C    19.37400000     1.39034797    19.37400000
    126      C    18.52361377     0.69508386    20.22438615
    127      H    17.94897030     1.16266420    20.79902959
    128      C    18.52361385    25.13691614    20.22438623
    129      H    17.94897041    24.66933580    20.79902970
    130      C    19.37400000    24.44165203    19.37400000
    131      C    20.22438615    25.13691614    18.52361377
    132      H    20.79902959    24.66933580    17.94897030
    133      C    20.22438623     0.69508386    18.52361385
    134      H    20.79902970     1.16266420    17.94897041
    135      C    19.37400000    22.95554766    19.37400000
    136      O    20.19588347    22.37040232    18.55134241
    137     Zn    20.49419070    20.49419070    18.25380930
    138      O    20.19665759    20.19588347    16.37759768
    139      C    19.37400000    19.37400000    15.79245234
    140      C    19.37400000    19.37400000    14.30634797
    141      C    18.52361377    18.52361385    13.61108386
    142      H    17.94897030    17.94897041    14.07866420
    143      C    18.52361385    18.52361377    12.22091614
    144      H    17.94897041    17.94897030    11.75333580
    145      C    19.37400000    19.37400000    11.52565203
    146      C    20.22438615    20.22438623    12.22091614
    147      H    20.79902959    20.79902970    11.75333580
    148      C    20.22438623    20.22438615    13.61108386
    149      H    20.79902970    20.79902959    14.07866420
    150      C    19.37400000    19.37400000    10.03954766
    151      O    18.55211653    18.55134241     9.45440232
    152     Zn    18.25380930    18.25380930     7.57819070
    153      O    18.55134241    16.37759768     7.27988347
    154      C    19.37400000    15.79245234     6.45800000
    155      C    19.37400000    14.30634797     6.45800000
    156      C    18.52361377    13.61108386     7.30838615
    157      H    17.94897030    14.07866420     7.88302959
    158      C    18.52361385    12.22091614     7.30838623
    159      H    17.94897041    11.75333580     7.88302970
    160      C    19.37400000    11.52565203     6.45800000
    161      C    20.22438615    12.22091614     5.60761377
    162      H    20.79902959    11.75333580     5.03297030
    163      C    20.22438623    13.61108386     5.60761385
    164      H    20.79902970    14.07866420     5.03297041
    165      C    19.37400000    10.03954766     6.45800000
    166      O    20.19588347     9.45440232     5.63534241
    167      O    18.55211653     9.45440232     7.28065759
    168     Zn    18.25380930     7.57819070     7.57819070
    169      O    16.37759768     7.28065759     7.27988347
    170      C    15.79245234     6.45800000     6.45800000
    171      C    14.30634797     6.45800000     6.45800000
    172      C    13.61108386     5.60761377     5.60761385
    173      H    14.07866420     5.03297030     5.03297041
    174      C    12.22091614     5.60761385     5.60761377
    175      H    11.75333580     5.03297041     5.03297030
    176      C    11.52565203     6.45800000     6.45800000
    177      C    12.22091614     7.30838615     7.30838623
    178      H    11.75333580     7.88302959     7.88302970
    179      C    13.61108386     7.30838623     7.30838615
    180      H    14.07866420     7.88302970     7.88302959
    181      C    10.03954766     6.45800000     6.45800000
    182      O     9.45440232     5.63611653     5.63534241
    183      O     9.45440232     7.27988347     7.28065759
    184     Zn     7.57819070     7.57819070     7.57819070
    185      O     7.27988347     7.28065759     9.45440232
    186      C     6.45800000     6.45800000    10.03954766
    187      C     6.45800000     6.45800000    11.52565203
    188      C     5.60761385     5.60761377    12.22091614
    189      H     5.03297041     5.03297030    11.75333580
    190      C     5.60761377     5.60761385    13.61108386
    191      H     5.03297030     5.03297041    14.07866420
    192      C     6.45800000     6.45800000    14.30634797
    193      C     7.30838623     7.30838615    13.61108386
    194      H     7.88302970     7.88302959    14.07866420
    195      C     7.30838615     7.30838623    12.22091614
    196      H     7.88302959     7.88302970    11.75333580
    197      C     6.45800000     6.45800000    15.79245234
    198      O     5.63534241     5.63611653    16.37759768
    199     Zn     5.33780930     5.33780930    18.25380930
    200      O     3.46159768     5.63534241    18.55211653
    201      O     5.63611653     3.46159768    18.55134241
    202      C     6.45800000     2.87645234    19.37400000
    203      C     6.45800000     1.39034797    19.37400000
    204      C     5.60761385     0.69508386    18.52361377
    205      H     5.03297041     1.16266420    17.94897030
    206      C     5.60761377    25.13691614    18.52361385
    207      H     5.03297030    24.66933580    17.94897041
    208      C     6.45800000    24.44165203    19.37400000
    209      C     7.30838623    25.13691614    20.22438615
    210      H     7.88302970    24.66933580    20.79902959
    211      C     7.30838615     0.69508386    20.22438623
    212      H     7.88302959     1.16266420    20.79902970
    213      C     6.45800000    22.95554766    19.37400000
    214      O     5.63534241    22.37040232    18.55211653
    215     Zn     5.33780930    20.49419070    18.25380930
    216      O     3.46159768    20.19588347    18.55134241
    217      C     2.87645234    19.37400000    19.37400000
    218      C     1.39034797    19.37400000    19.37400000
    219      C     0.69508386    18.52361385    20.22438623
    220      H     1.16266420    17.94897041    20.79902970
    221      C    25.13691614    18.52361377    20.22438615
    222      H    24.66933580    17.94897030    20.79902959
    223      C    24.44165203    19.37400000    19.37400000
    224      C    25.13691614    20.22438623    18.52361385
    225      H    24.66933580    20.79902970    17.94897041
    226      C     0.69508386    20.22438615    18.52361377
    227      H     1.16266420    20.79902959    17.94897030
    228      C    22.95554766    19.37400000    19.37400000
    229      O    22.37040232    20.19665759    18.55211653
    230      O    22.37040232    18.55134241    20.19588347
    231     Zn    20.49419070    18.25380930    20.49419070
    232      O    20.19665759    18.55211653    22.37040232
    233      C    19.37400000    19.37400000    22.95554766
    234      C    19.37400000    19.37400000    24.44165203
    235      C    18.52361377    20.22438615    25.13691614
    236      H    17.94897030    20.79902959    24.66933580
    237      C    18.52361385    20.22438623     0.69508386
    238      H    17.94897041    20.79902970     1.16266420
    239      C    19.37400000    19.37400000     1.39034797
    240      C    20.22438615    18.52361377     0.69508386
    241      H    20.79902959    17.94897030     1.16266420
    242      C    20.22438623    18.52361385    25.13691614
    243      H    20.79902970    17.94897041    24.66933580
    244      C    19.37400000    19.37400000     2.87645234
    245      O    20.19588347    18.55134241     3.46159768
    246     Zn    20.49419070    18.25380930     5.33780930
    247      O    22.37040232    18.55211653     5.63534241
    248      C    22.95554766    19.37400000     6.45800000
    249      C    24.44165203    19.37400000     6.45800000
    250      C    25.13691614    18.52361385     5.60761377
    251      H    24.66933580    17.94897041     5.03297030
    252      C     0.69508386    18.52361377     5.60761385
    253      H     1.16266420    17.94897030     5.03297041
    254      C     1.39034797    19.37400000     6.45800000
    255      C     0.69508386    20.22438623     7.30838615
    256      H     1.16266420    20.79902970     7.88302959
    257      C    25.13691614    20.22438615     7.30838623
    258      H    24.66933580    20.79902959     7.88302970
    259      C     2.87645234    19.37400000     6.45800000
    260      O     3.46159768    18.55134241     5.63611653
    261     Zn     5.33780930    18.25380930     5.33780930
    262      O     5.63534241    18.55211653     3.46159768
    263      C     6.45800000    19.37400000     2.87645234
    264      C     6.45800000    19.37400000     1.39034797
    265      C     5.60761377    18.52361385     0.69508386
    266      H     5.03297030    17.94897041     1.16266420
    267      C     5.60761385    18.52361377    25.13691614
    268      H     5.03297041    17.94897030    24.66933580
    269      C     6.45800000    19.37400000    24.44165203
    270      C     7.30838615    20.22438623    25.13691614
    271      H     7.88302959    20.79902970    24.66933580
    272      C     7.30838623    20.22438615     0.69508386
    273      H     7.88302970    20.79902959     1.16266420
    274      C     6.45800000    19.37400000    22.95554766
    275      O     5.63611653    18.55134241    22.37040232
    276     Zn     5.33780930    18.25380930    20.49419070
    277      O     5.63534241    16.37759768    20.19588347
    278      C     6.45800000    15.79245234    19.37400000
    279      C     6.45800000    14.30634797    19.37400000
    280      C     5.60761377    13.61108386    20.22438615
    281      H     5.03297030    14.07866420    20.79902959
    282      C     5.60761385    12.22091614    20.22438623
    283      H     5.03297041    11.75333580    20.79902970
    284      C     6.45800000    11.52565203    19.37400000
    285      C     7.30838615    12.22091614    18.52361377
    286      H     7.88302959    11.75333580    17.94897030
    287      C     7.30838623    13.61108386    18.52361385
    288      H     7.88302970    14.07866420    17.94897041
    289      C     6.45800000    10.03954766    19.37400000
    290      O     5.63611653     9.45440232    20.19665759
    291      O     7.27988347     9.45440232    18.55134241
    292     Zn     7.57819070     7.57819070    18.25380930
    293      O     7.28065759     7.27988347    16.37759768
    294      O     9.45440232     7.28065759    18.55211653
    295      C    10.03954766     6.45800000    19.37400000
    296      C    11.52565203     6.45800000    19.37400000
    297      C    12.22091614     7.30838623    18.52361385
    298      H    11.75333580     7.88302970    17.94897041
    299      C    13.61108386     7.30838615    18.52361377
    300      H    14.07866420     7.88302959    17.94897030
    301      C    14.30634797     6.45800000    19.37400000
    302      C    13.61108386     5.60761385    20.22438623
    303      H    14.07866420     5.03297041    20.79902970
    304      C    12.22091614     5.60761377    20.22438615
    305      H    11.75333580     5.03297030    20.79902959
    306      C    15.79245234     6.45800000    19.37400000
    307      O    16.37759768     5.63611653    20.19665759
    308      O    16.37759768     7.27988347    18.55134241
    309     Zn    18.25380930     7.57819070    18.25380930
    310      O    18.55211653     7.28065759    16.37759768
    311      O    18.55134241     9.45440232    18.55211653
    312      C    19.37400000    10.03954766    19.37400000
    313      C    19.37400000    11.52565203    19.37400000
    314      C    18.52361377    12.22091614    18.52361385
    315      H    17.94897030    11.75333580    17.94897041
    316      C    18.52361385    13.61108386    18.52361377
    317      H    17.94897041    14.07866420    17.94897030
    318      C    19.37400000    14.30634797    19.37400000
    319      C    20.22438615    13.61108386    20.22438623
    320      H    20.79902959    14.07866420    20.79902970
    321      C    20.22438623    12.22091614    20.22438615
    322      H    20.79902970    11.75333580    20.79902959
    323      C    19.37400000    15.79245234    19.37400000
    324      O    18.55211653    16.37759768    18.55134241
    325     Zn    18.25380930    18.25380930    18.25380930
    326      O    16.37759768    18.55134241    18.55211653
    327      C    15.79245234    19.37400000    19.37400000
    328      C    14.30634797    19.37400000    19.37400000
    329      C    13.61108386    18.52361377    18.52361385
    330      H    14.07866420    17.94897030    17.94897041
    331      C    12.22091614    18.52361385    18.52361377
    332      H    11.75333580    17.94897041    17.94897030
    333      C    11.52565203    19.37400000    19.37400000
    334      C    12.22091614    20.22438615    20.22438623
    335      H    11.75333580    20.79902959    20.79902970
    336      C    13.61108386    20.22438623    20.22438615
    337      H    14.07866420    20.79902970    20.79902959
    338      C    10.03954766    19.37400000    19.37400000
    339      O     9.45440232    18.55211653    18.55134241
    340     Zn     7.57819070    18.25380930    18.25380930
    341      O     7.27988347    18.55134241    16.37759768
    342      C     6.45800000    19.37400000    15.79245234
    343      C     6.45800000    19.37400000    14.30634797
    344      C     5.60761385    20.22438623    13.61108386
    345      H     5.03297041    20.79902970    14.07866420
    346      C     5.60761377    20.22438615    12.22091614
    347      H     5.03297030    20.79902959    11.75333580
    348      C     6.45800000    19.37400000    11.52565203
    349      C     7.30838623    18.52361385    12.22091614
    350      H     7.88302970    17.94897041    11.75333580
    351      C     7.30838615    18.52361377    13.61108386
    352      H     7.88302959    17.94897030    14.07866420
    353      C     6.45800000    19.37400000    10.03954766
    354      O     5.63534241    20.19588347     9.45440232
    355     Zn     5.33780930    20.49419070     7.57819070
    356      O     3.46159768    20.19665759     7.27988347
    357      O     5.63611653    22.37040232     7.28065759
    358      O     6.45800000    19.37400000     6.45800000
    359     Zn     7.57819070    18.25380930     7.57819070
    360      O     7.28065759    18.55211653     9.45440232
    361      O     7.27988347    16.37759768     7.28065759
    362      C     6.45800000    15.79245234     6.45800000
    363      C     6.45800000    14.30634797     6.45800000
    364      C     5.60761385    13.61108386     5.60761377
    365      H     5.03297041    14.07866420     5.03297030
    366      C     5.60761377    12.22091614     5.60761385
    367      H     5.03297030    11.75333580     5.03297041
    368      C     6.45800000    11.52565203     6.45800000
    369      C     7.30838623    12.22091614     7.30838615
    370      H     7.88302970    11.75333580     7.88302959
    371      C     7.30838615    13.61108386     7.30838623
    372      H     7.88302959    14.07866420     7.88302970
    373      C     6.45800000    10.03954766     6.45800000
    374      O     5.63534241     9.45440232     5.63611653
    375     Zn     5.33780930     7.57819070     5.33780930
    376      O     3.46159768     7.27988347     5.63534241
    377      O     5.63611653     7.28065759     3.46159768
    378      O     6.45800000     6.45800000     6.45800000
    379      O     7.28065759     9.45440232     7.27988347
    380      O     5.63611653    16.37759768     5.63534241
    381      O     9.45440232    18.55134241     7.27988347
    382      O     5.63611653    20.19665759    16.37759768
    383      O     7.28065759    16.37759768    18.55211653
    384      O     6.45800000    19.37400000    19.37400000
    385     Zn     7.57819070    20.49419070    20.49419070
    386      O     7.28065759    22.37040232    20.19588347
    387      O     7.27988347    20.19665759    22.37040232
    388      O     9.45440232    20.19588347    20.19665759
    389      O    16.37759768    20.19665759    20.19588347
    390     Zn    18.25380930    20.49419070    20.49419070
    391      O    18.55211653    22.37040232    20.19665759
    392      O    18.55134241    20.19588347    22.37040232
    393      O    19.37400000    19.37400000    19.37400000
    394      O    18.55134241    18.55211653    16.37759768
    395      O    20.19588347    16.37759768    20.19665759
    396      O    20.19665759     9.45440232    20.19588347
    397     Zn    20.49419070     7.57819070    20.49419070
    398      O    20.19588347     7.28065759    22.37040232
    399      O    19.37400000     6.45800000    19.37400000
    400      O    22.37040232     7.27988347    20.19665759
    401      O     9.45440232     5.63534241    20.19588347
    402     Zn     7.57819070     5.33780930    20.49419070
    403      O     7.28065759     5.63611653    22.37040232
    404      O     7.27988347     3.46159768    20.19665759
    405      O     6.45800000     6.45800000    19.37400000
    406      O     3.46159768    18.55211653    20.19665759
    407      O     7.28065759    20.19588347     3.46159768
    408      O    22.37040232    20.19588347     7.28065759
    409     Zn    20.49419070    20.49419070     7.57819070
    410      O    20.19665759    22.37040232     7.27988347
    411      O    20.19588347    20.19665759     9.45440232
    412      O    19.37400000    19.37400000     6.45800000
    413      O    20.19665759    16.37759768     5.63611653
    414      O    18.55211653    20.19665759     3.46159768
    415      O     5.63611653     5.63534241     9.45440232
    416      O    16.37759768     5.63534241     5.63611653
    417     Zn    18.25380930     5.33780930     5.33780930
    418      O    18.55134241     5.63611653     3.46159768
    419      O    18.55211653     3.46159768     5.63534241
    420      O    19.37400000     6.45800000     6.45800000
    421      O    18.55134241     7.27988347     9.45440232
    422      O    16.37759768    18.55211653     7.28065759
    423      O    20.19665759     3.46159768    18.55211653
    424      O     7.28065759     3.46159768     5.63611653
 
Lattice vectors (angstrom)
      1    25.83200000     0.00000000     0.00000000
      2     0.00000000    25.83200000     0.00000000
      3     0.00000000     0.00000000    25.83200000
 
Unit cell volume (angstrom^3)     17237.49273
 
Total System Charge             0.00000
 

 dE(predicted):    -0.34345E+00, dE(actual):    -0.33763E+00, Trust radius:    0.400000, all in a.u.
 
----------------------------------------------------------------------
Geometry Convergence after Step   2       (Hartree/Angstrom,Angstrom)
----------------------------------------------------------------------
current energy                             -972.89380965 Hartree
energy change                      -0.33763050     0.00424000    F
constrained gradient max            0.18091138     0.00100000    F
constrained gradient rms            0.11711998     0.00066667    F
gradient max                        0.18091138
gradient rms                        0.11711998
cart. step max                      0.01342508     0.01000000    F
cart. step rms                      0.00615630     0.00666667    T
 
 
--------
Geometry
--------
Formula: C192H96O104Zn32
Atoms
  Index Symbol   x (angstrom)   y (angstrom)   z (angstrom)
      1     Zn     7.57720513     5.33879487     5.33879487
      2      O     7.27654682     5.63868113     3.46185873
      3      C     6.45800000     6.45800000     2.87958514
      4      C     6.45800000     6.45800000     1.39155007
      5      C     5.60663437     7.30936590     0.69539998
      6      H     5.01954559     7.89645478     1.17318789
      7      C     5.60663410     7.30936563    25.13660002
      8      H     5.01954522     7.89645441    24.65881211
      9      C     6.45800000     6.45800000    24.44044993
     10      C     7.30936590     5.60663437    25.13660002
     11      H     7.89645478     5.01954559    24.65881211
     12      C     7.30936563     5.60663410     0.69539998
     13      H     7.89645441     5.01954522     1.17318789
     14      C     6.45800000     6.45800000    22.95241486
     15      O     5.63868113     7.27654682    22.37014127
     16     Zn     5.33879487     7.57720513    20.49320513
     17      O     3.46185873     7.27731887    20.19254682
     18      C     2.87958514     6.45800000    19.37400000
     19      C     1.39155007     6.45800000    19.37400000
     20      C     0.69539998     5.60663410    18.52263437
     21      H     1.17318789     5.01954522    17.93554559
     22      C    25.13660002     5.60663437    18.52263410
     23      H    24.65881211     5.01954559    17.93554522
     24      C    24.44044993     6.45800000    19.37400000
     25      C    25.13660002     7.30936563    20.22536590
     26      H    24.65881211     7.89645441    20.81245478
     27      C     0.69539998     7.30936590    20.22536563
     28      H     1.17318789     7.89645478    20.81245441
     29      C    22.95241486     6.45800000    19.37400000
     30      O    22.37014127     5.63945318    18.55468113
     31     Zn    20.49320513     5.33879487    18.25479487
     32      O    20.19254682     5.63868113    16.37785873
     33      C    19.37400000     6.45800000    15.79558514
     34      C    19.37400000     6.45800000    14.30755007
     35      C    18.52263437     7.30936590    13.61139998
     36      H    17.93554559     7.89645478    14.08918789
     37      C    18.52263410     7.30936563    12.22060002
     38      H    17.93554522     7.89645441    11.74281211
     39      C    19.37400000     6.45800000    11.52444993
     40      C    20.22536590     5.60663437    12.22060002
     41      H    20.81245478     5.01954559    11.74281211
     42      C    20.22536563     5.60663410    13.61139998
     43      H    20.81245441     5.01954522    14.08918789
     44      C    19.37400000     6.45800000    10.03641486
     45      O    20.19331887     5.63945318     9.45414127
     46     Zn    20.49320513     5.33879487     7.57720513
     47      O    20.19254682     3.46185873     7.27731887
     48      C    19.37400000     2.87958514     6.45800000
     49      C    19.37400000     1.39155007     6.45800000
     50      C    18.52263437     0.69539998     5.60663410
     51      H    17.93554559     1.17318789     5.01954522
     52      C    18.52263410    25.13660002     5.60663437
     53      H    17.93554522    24.65881211     5.01954559
     54      C    19.37400000    24.44044993     6.45800000
     55      C    20.22536590    25.13660002     7.30936563
     56      H    20.81245478    24.65881211     7.89645441
     57      C    20.22536563     0.69539998     7.30936590
     58      H    20.81245441     1.17318789     7.89645478
     59      C    19.37400000    22.95241486     6.45800000
     60      O    18.55468113    22.37014127     5.63945318
     61     Zn    18.25479487    20.49320513     5.33879487
     62      O    16.37785873    20.19254682     5.63868113
     63      C    15.79558514    19.37400000     6.45800000
     64      C    14.30755007    19.37400000     6.45800000
     65      C    13.61139998    18.52263437     7.30936590
     66      H    14.08918789    17.93554559     7.89645478
     67      C    12.22060002    18.52263410     7.30936563
     68      H    11.74281211    17.93554522     7.89645441
     69      C    11.52444993    19.37400000     6.45800000
     70      C    12.22060002    20.22536590     5.60663437
     71      H    11.74281211    20.81245478     5.01954559
     72      C    13.61139998    20.22536563     5.60663410
     73      H    14.08918789    20.81245441     5.01954522
     74      C    10.03641486    19.37400000     6.45800000
     75      O     9.45414127    20.19331887     5.63945318
     76     Zn     7.57720513    20.49320513     5.33879487
     77      O     7.27654682    22.37014127     5.63868113
     78      C     6.45800000    22.95241486     6.45800000
     79      C     6.45800000    24.44044993     6.45800000
     80      C     5.60663437    25.13660002     7.30936590
     81      H     5.01954559    24.65881211     7.89645478
     82      C     5.60663410     0.69539998     7.30936563
     83      H     5.01954522     1.17318789     7.89645441
     84      C     6.45800000     1.39155007     6.45800000
     85      C     7.30936590     0.69539998     5.60663437
     86      H     7.89645478     1.17318789     5.01954559
     87      C     7.30936563    25.13660002     5.60663410
     88      H     7.89645441    24.65881211     5.01954522
     89      C     6.45800000     2.87958514     6.45800000
     90      O     5.63868113     3.46185873     7.27654682
     91     Zn     5.33879487     5.33879487     7.57720513
     92      O     3.46185873     5.63945318     7.27731887
     93      C     2.87958514     6.45800000     6.45800000
     94      C     1.39155007     6.45800000     6.45800000
     95      C     0.69539998     5.60663437     7.30936590
     96      H     1.17318789     5.01954559     7.89645478
     97      C    25.13660002     5.60663410     7.30936563
     98      H    24.65881211     5.01954522     7.89645441
     99      C    24.44044993     6.45800000     6.45800000
    100      C    25.13660002     7.30936590     5.60663437
    101      H    24.65881211     7.89645478     5.01954559
    102      C     0.69539998     7.30936563     5.60663410
    103      H     1.17318789     7.89645441     5.01954522
    104      C    22.95241486     6.45800000     6.45800000
    105      O    22.37014127     5.63868113     7.27654682
    106      O    22.37014127     7.27731887     5.63945318
    107     Zn    20.49320513     7.57720513     5.33879487
    108      O    20.19331887     7.27654682     3.46185873
    109      C    19.37400000     6.45800000     2.87958514
    110      C    19.37400000     6.45800000     1.39155007
    111      C    18.52263410     5.60663437     0.69539998
    112      H    17.93554522     5.01954559     1.17318789
    113      C    18.52263437     5.60663410    25.13660002
    114      H    17.93554559     5.01954522    24.65881211
    115      C    19.37400000     6.45800000    24.44044993
    116      C    20.22536563     7.30936590    25.13660002
    117      H    20.81245441     7.89645478    24.65881211
    118      C    20.22536590     7.30936563     0.69539998
    119      H    20.81245478     7.89645441     1.17318789
    120      C    19.37400000     6.45800000    22.95241486
    121      O    18.55545318     5.63868113    22.37014127
    122     Zn    18.25479487     5.33879487    20.49320513
    123      O    18.55468113     3.46185873    20.19254682
    124      C    19.37400000     2.87958514    19.37400000
    125      C    19.37400000     1.39155007    19.37400000
    126      C    18.52263410     0.69539998    20.22536563
    127      H    17.93554522     1.17318789    20.81245441
    128      C    18.52263437    25.13660002    20.22536590
    129      H    17.93554559    24.65881211    20.81245478
    130      C    19.37400000    24.44044993    19.37400000
    131      C    20.22536563    25.13660002    18.52263410
    132      H    20.81245441    24.65881211    17.93554522
    133      C    20.22536590     0.69539998    18.52263437
    134      H    20.81245478     1.17318789    17.93554559
    135      C    19.37400000    22.95241486    19.37400000
    136      O    20.19254682    22.37014127    18.55468113
    137     Zn    20.49320513    20.49320513    18.25479487
    138      O    20.19331887    20.19254682    16.37785873
    139      C    19.37400000    19.37400000    15.79558514
    140      C    19.37400000    19.37400000    14.30755007
    141      C    18.52263410    18.52263437    13.61139998
    142      H    17.93554522    17.93554559    14.08918789
    143      C    18.52263437    18.52263410    12.22060002
    144      H    17.93554559    17.93554522    11.74281211
    145      C    19.37400000    19.37400000    11.52444993
    146      C    20.22536563    20.22536590    12.22060002
    147      H    20.81245441    20.81245478    11.74281211
    148      C    20.22536590    20.22536563    13.61139998
    149      H    20.81245478    20.81245441    14.08918789
    150      C    19.37400000    19.37400000    10.03641486
    151      O    18.55545318    18.55468113     9.45414127
    152     Zn    18.25479487    18.25479487     7.57720513
    153      O    18.55468113    16.37785873     7.27654682
    154      C    19.37400000    15.79558514     6.45800000
    155      C    19.37400000    14.30755007     6.45800000
    156      C    18.52263410    13.61139998     7.30936563
    157      H    17.93554522    14.08918789     7.89645441
    158      C    18.52263437    12.22060002     7.30936590
    159      H    17.93554559    11.74281211     7.89645478
    160      C    19.37400000    11.52444993     6.45800000
    161      C    20.22536563    12.22060002     5.60663410
    162      H    20.81245441    11.74281211     5.01954522
    163      C    20.22536590    13.61139998     5.60663437
    164      H    20.81245478    14.08918789     5.01954559
    165      C    19.37400000    10.03641486     6.45800000
    166      O    20.19254682     9.45414127     5.63868113
    167      O    18.55545318     9.45414127     7.27731887
    168     Zn    18.25479487     7.57720513     7.57720513
    169      O    16.37785873     7.27731887     7.27654682
    170      C    15.79558514     6.45800000     6.45800000
    171      C    14.30755007     6.45800000     6.45800000
    172      C    13.61139998     5.60663410     5.60663437
    173      H    14.08918789     5.01954522     5.01954559
    174      C    12.22060002     5.60663437     5.60663410
    175      H    11.74281211     5.01954559     5.01954522
    176      C    11.52444993     6.45800000     6.45800000
    177      C    12.22060002     7.30936563     7.30936590
    178      H    11.74281211     7.89645441     7.89645478
    179      C    13.61139998     7.30936590     7.30936563
    180      H    14.08918789     7.89645478     7.89645441
    181      C    10.03641486     6.45800000     6.45800000
    182      O     9.45414127     5.63945318     5.63868113
    183      O     9.45414127     7.27654682     7.27731887
    184     Zn     7.57720513     7.57720513     7.57720513
    185      O     7.27654682     7.27731887     9.45414127
    186      C     6.45800000     6.45800000    10.03641486
    187      C     6.45800000     6.45800000    11.52444993
    188      C     5.60663437     5.60663410    12.22060002
    189      H     5.01954559     5.01954522    11.74281211
    190      C     5.60663410     5.60663437    13.61139998
    191      H     5.01954522     5.01954559    14.08918789
    192      C     6.45800000     6.45800000    14.30755007
    193      C     7.30936590     7.30936563    13.61139998
    194      H     7.89645478     7.89645441    14.08918789
    195      C     7.30936563     7.30936590    12.22060002
    196      H     7.89645441     7.89645478    11.74281211
    197      C     6.45800000     6.45800000    15.79558514
    198      O     5.63868113     5.63945318    16.37785873
    199     Zn     5.33879487     5.33879487    18.25479487
    200      O     3.46185873     5.63868113    18.55545318
    201      O     5.63945318     3.46185873    18.55468113
    202      C     6.45800000     2.87958514    19.37400000
    203      C     6.45800000     1.39155007    19.37400000
    204      C     5.60663437     0.69539998    18.52263410
    205      H     5.01954559     1.17318789    17.93554522
    206      C     5.60663410    25.13660002    18.52263437
    207      H     5.01954522    24.65881211    17.93554559
    208      C     6.45800000    24.44044993    19.37400000
    209      C     7.30936590    25.13660002    20.22536563
    210      H     7.89645478    24.65881211    20.81245441
    211      C     7.30936563     0.69539998    20.22536590
    212      H     7.89645441     1.17318789    20.81245478
    213      C     6.45800000    22.95241486    19.37400000
    214      O     5.63868113    22.37014127    18.55545318
    215     Zn     5.33879487    20.49320513    18.25479487
    216      O     3.46185873    20.19254682    18.55468113
    217      C     2.87958514    19.37400000    19.37400000
    218      C     1.39155007    19.37400000    19.37400000
    219      C     0.69539998    18.52263437    20.22536590
    220      H     1.17318789    17.93554559    20.81245478
    221      C    25.13660002    18.52263410    20.22536563
    222      H    24.65881211    17.93554522    20.81245441
    223      C    24.44044993    19.37400000    19.37400000
    224      C    25.13660002    20.22536590    18.52263437
    225      H    24.65881211    20.81245478    17.93554559
    226      C     0.69539998    20.22536563    18.52263410
    227      H     1.17318789    20.81245441    17.93554522
    228      C    22.95241486    19.37400000    19.37400000
    229      O    22.37014127    20.19331887    18.55545318
    230      O    22.37014127    18.55468113    20.19254682
    231     Zn    20.49320513    18.25479487    20.49320513
    232      O    20.19331887    18.55545318    22.37014127
    233      C    19.37400000    19.37400000    22.95241486
    234      C    19.37400000    19.37400000    24.44044993
    235      C    18.52263410    20.22536563    25.13660002
    236      H    17.93554522    20.81245441    24.65881211
    237      C    18.52263437    20.22536590     0.69539998
    238      H    17.93554559    20.81245478     1.17318789
    239      C    19.37400000    19.37400000     1.39155007
    240      C    20.22536563    18.52263410     0.69539998
    241      H    20.81245441    17.93554522     1.17318789
    242      C    20.22536590    18.52263437    25.13660002
    243      H    20.81245478    17.93554559    24.65881211
    244      C    19.37400000    19.37400000     2.87958514
    245      O    20.19254682    18.55468113     3.46185873
    246     Zn    20.49320513    18.25479487     5.33879487
    247      O    22.37014127    18.55545318     5.63868113
    248      C    22.95241486    19.37400000     6.45800000
    249      C    24.44044993    19.37400000     6.45800000
    250      C    25.13660002    18.52263437     5.60663410
    251      H    24.65881211    17.93554559     5.01954522
    252      C     0.69539998    18.52263410     5.60663437
    253      H     1.17318789    17.93554522     5.01954559
    254      C     1.39155007    19.37400000     6.45800000
    255      C     0.69539998    20.22536590     7.30936563
    256      H     1.17318789    20.81245478     7.89645441
    257      C    25.13660002    20.22536563     7.30936590
    258      H    24.65881211    20.81245441     7.89645478
    259      C     2.87958514    19.37400000     6.45800000
    260      O     3.46185873    18.55468113     5.63945318
    261     Zn     5.33879487    18.25479487     5.33879487
    262      O     5.63868113    18.55545318     3.46185873
    263      C     6.45800000    19.37400000     2.87958514
    264      C     6.45800000    19.37400000     1.39155007
    265      C     5.60663410    18.52263437     0.69539998
    266      H     5.01954522    17.93554559     1.17318789
    267      C     5.60663437    18.52263410    25.13660002
    268      H     5.01954559    17.93554522    24.65881211
    269      C     6.45800000    19.37400000    24.44044993
    270      C     7.30936563    20.22536590    25.13660002
    271      H     7.89645441    20.81245478    24.65881211
    272      C     7.30936590    20.22536563     0.69539998
    273      H     7.89645478    20.81245441     1.17318789
    274      C     6.45800000    19.37400000    22.95241486
    275      O     5.63945318    18.55468113    22.37014127
    276     Zn     5.33879487    18.25479487    20.49320513
    277      O     5.63868113    16.37785873    20.19254682
    278      C     6.45800000    15.79558514    19.37400000
    279      C     6.45800000    14.30755007    19.37400000
    280      C     5.60663410    13.61139998    20.22536563
    281      H     5.01954522    14.08918789    20.81245441
    282      C     5.60663437    12.22060002    20.22536590
    283      H     5.01954559    11.74281211    20.81245478
    284      C     6.45800000    11.52444993    19.37400000
    285      C     7.30936563    12.22060002    18.52263410
    286      H     7.89645441    11.74281211    17.93554522
    287      C     7.30936590    13.61139998    18.52263437
    288      H     7.89645478    14.08918789    17.93554559
    289      C     6.45800000    10.03641486    19.37400000
    290      O     5.63945318     9.45414127    20.19331887
    291      O     7.27654682     9.45414127    18.55468113
    292     Zn     7.57720513     7.57720513    18.25479487
    293      O     7.27731887     7.27654682    16.37785873
    294      O     9.45414127     7.27731887    18.55545318
    295      C    10.03641486     6.45800000    19.37400000
    296      C    11.52444993     6.45800000    19.37400000
    297      C    12.22060002     7.30936590    18.52263437
    298      H    11.74281211     7.89645478    17.93554559
    299      C    13.61139998     7.30936563    18.52263410
    300      H    14.08918789     7.89645441    17.93554522
    301      C    14.30755007     6.45800000    19.37400000
    302      C    13.61139998     5.60663437    20.22536590
    303      H    14.08918789     5.01954559    20.81245478
    304      C    12.22060002     5.60663410    20.22536563
    305      H    11.74281211     5.01954522    20.81245441
    306      C    15.79558514     6.45800000    19.37400000
    307      O    16.37785873     5.63945318    20.19331887
    308      O    16.37785873     7.27654682    18.55468113
    309     Zn    18.25479487     7.57720513    18.25479487
    310      O    18.55545318     7.27731887    16.37785873
    311      O    18.55468113     9.45414127    18.55545318
    312      C    19.37400000    10.03641486    19.37400000
    313      C    19.37400000    11.52444993    19.37400000
    314      C    18.52263410    12.22060002    18.52263437
    315      H    17.93554522    11.74281211    17.93554559
    316      C    18.52263437    13.61139998    18.52263410
    317      H    17.93554559    14.08918789    17.93554522
    318      C    19.37400000    14.30755007    19.37400000
    319      C    20.22536563    13.61139998    20.22536590
    320      H    20.81245441    14.08918789    20.81245478
    321      C    20.22536590    12.22060002    20.22536563
    322      H    20.81245478    11.74281211    20.81245441
    323      C    19.37400000    15.79558514    19.37400000
    324      O    18.55545318    16.37785873    18.55468113
    325     Zn    18.25479487    18.25479487    18.25479487
    326      O    16.37785873    18.55468113    18.55545318
    327      C    15.79558514    19.37400000    19.37400000
    328      C    14.30755007    19.37400000    19.37400000
    329      C    13.61139998    18.52263410    18.52263437
    330      H    14.08918789    17.93554522    17.93554559
    331      C    12.22060002    18.52263437    18.52263410
[...]
        997     -0.05015     -0.05015      0.00000
        998     -0.05015     -0.05015      0.00000
        999     -0.04983     -0.04983      0.00000
       1000     -0.04983     -0.04983      0.00000
       1001     -0.04983     -0.04983      0.00000
       1002     -0.04983     -0.04983      0.00000
       1003     -0.04983     -0.04983      0.00000
       1004     -0.04983     -0.04983      0.00000
       1005     -0.04878     -0.04878      0.00000
       1006     -0.04878     -0.04878      0.00000
       1007     -0.04878     -0.04878      0.00000
       1008     -0.04854     -0.04854      0.00000
       1009     -0.04854     -0.04854      0.00000
       1010     -0.04854     -0.04854      0.00000
       1011     -0.04817     -0.04817      0.00000
       1012     -0.04817     -0.04817      0.00000
       1013     -0.04817     -0.04817      0.00000
       1014     -0.04817     -0.04817      0.00000
       1015     -0.04817     -0.04817      0.00000
       1016     -0.04817     -0.04817      0.00000
       1017     -0.04806     -0.04806      0.00000
       1018     -0.04806     -0.04806      0.00000
       1019     -0.04806     -0.04806      0.00000
       1020     -0.04755     -0.04755      0.00000
       1021     -0.04755     -0.04755      0.00000
       1022     -0.04755     -0.04755      0.00000
       1023     -0.04755     -0.04755      0.00000
       1024     -0.04755     -0.04755      0.00000
       1025      0.06512      0.06512      0.00000
       1026      0.06512      0.06512      0.00000
       1027      0.06512      0.06512      0.00000
       1028      0.06572      0.06572      0.00000
       1029      0.06572      0.06572      0.00000
       1030      0.06572      0.06572      0.00000
       1031      0.06598      0.06598      0.00000
       1032      0.06598      0.06598      0.00000
       1033      0.06598      0.06598      0.00000
       1034      0.06598      0.06598      0.00000
       1035      0.06598      0.06598      0.00000
       1036      0.06598      0.06598      0.00000
       1037      0.06661      0.06661      0.00000
       1038      0.06661      0.06661      0.00000
       1039      0.06661      0.06661      0.00000
       1040      0.06661      0.06661      0.00000
       1041      0.06661      0.06661      0.00000
       1042      0.06661      0.06661      0.00000
       1043      0.06681      0.06681      0.00000
       1044      0.06681      0.06681      0.00000
       1045      0.06681      0.06681      0.00000
       1046      0.06746      0.06746      0.00000
       1047      0.06746      0.06746      0.00000
       1048      0.06746      0.06746      0.00000
       1049      0.10291      0.10291      0.00000
       1050      0.10291      0.10291      0.00000
       1051      0.10291      0.10291      0.00000
       1052      0.10291      0.10291      0.00000
       1053      0.10291      0.10291      0.00000
       1054      0.10367      0.10367      0.00000
       1055      0.10367      0.10367      0.00000
       1056      0.10367      0.10367      0.00000
       1057      0.10463      0.10463      0.00000
       1058      0.10463      0.10463      0.00000
       1059      0.10463      0.10463      0.00000
       1060      0.10638      0.10638      0.00000
       1061      0.10789      0.10789      0.00000
       1062      0.10789      0.10789      0.00000
       1063      0.10789      0.10789      0.00000
       1064      0.10789      0.10789      0.00000
       1065      0.10789      0.10789      0.00000
       1066      0.10967      0.10967      0.00000
       1067      0.10967      0.10967      0.00000
       1068      0.10967      0.10967      0.00000
       1069      0.11066      0.11066      0.00000
       1070      0.11066      0.11066      0.00000
       1071      0.11066      0.11066      0.00000
       1072      0.11144      0.11144      0.00000
       1073      0.11962      0.11962      0.00000
       1074      0.11962      0.11962      0.00000
       1075      0.11962      0.11962      0.00000
       1076      0.11970      0.11970      0.00000
       1077      0.11970      0.11970      0.00000
       1078      0.11970      0.11970      0.00000
       1079      0.11970      0.11970      0.00000
       1080      0.11970      0.11970      0.00000
       1081      0.11970      0.11970      0.00000
       1082      0.11978      0.11978      0.00000
       1083      0.11978      0.11978      0.00000
       1084      0.11978      0.11978      0.00000
       1085      0.13145      0.13145      0.00000
       1086      0.13145      0.13145      0.00000
       1087      0.13145      0.13145      0.00000
       1088      0.13161      0.13161      0.00000
       1089      0.13161      0.13161      0.00000
       1090      0.13161      0.13161      0.00000
       1091      0.13161      0.13161      0.00000
       1092      0.13161      0.13161      0.00000
       1093      0.13161      0.13161      0.00000
       1094      0.13177      0.13177      0.00000
       1095      0.13177      0.13177      0.00000
       1096      0.13177      0.13177      0.00000
       1097      0.23115      0.23115      0.00000
       1098      0.23115      0.23115      0.00000
       1099      0.23115      0.23115      0.00000
       1100      0.23187      0.23187      0.00000
       1101      0.23187      0.23187      0.00000
       1102      0.23187      0.23187      0.00000
       1103      0.23187      0.23187      0.00000
       1104      0.23187      0.23187      0.00000
       1105      0.23187      0.23187      0.00000
       1106      0.23193      0.23193      0.00000
       1107      0.23193      0.23193      0.00000
       1108      0.23193      0.23193      0.00000
       1109      0.23194      0.23194      0.00000
       1110      0.23194      0.23194      0.00000
       1111      0.23286      0.23286      0.00000
       1112      0.23286      0.23286      0.00000
       1113      0.23286      0.23286      0.00000
       1114      0.23289      0.23289      0.00000
       1115      0.23289      0.23289      0.00000
       1116      0.23289      0.23289      0.00000
       1117      0.23289      0.23289      0.00000
       1118      0.23289      0.23289      0.00000
       1119      0.23289      0.23289      0.00000
       1120      0.23310      0.23310      0.00000
       1121      0.23310      0.23310      0.00000
       1122      0.23310      0.23310      0.00000
       1123      0.23310      0.23310      0.00000
       1124      0.23310      0.23310      0.00000
       1125      0.23310      0.23310      0.00000
       1126      0.23335      0.23335      0.00000
       1127      0.23335      0.23335      0.00000
       1128      0.23335      0.23335      0.00000
       1129      0.23387      0.23387      0.00000
       1130      0.23387      0.23387      0.00000
       1131      0.23387      0.23387      0.00000
       1132      0.23496      0.23496      0.00000
       1133      0.23755      0.23755      0.00000
       1134      0.23755      0.23755      0.00000
       1135      0.23755      0.23755      0.00000
       1136      0.23888      0.23888      0.00000
       1137      0.23888      0.23888      0.00000
       1138      0.23888      0.23888      0.00000
       1139      0.23888      0.23888      0.00000
       1140      0.23888      0.23888      0.00000
       1141      0.23888      0.23888      0.00000
       1142      0.23997      0.23997      0.00000
       1143      0.23997      0.23997      0.00000
       1144      0.23997      0.23997      0.00000
       1145      0.25690      0.25690      0.00000
       1146      0.25690      0.25690      0.00000
       1147      0.25690      0.25690      0.00000
       1148      0.25690      0.25690      0.00000
       1149      0.25690      0.25690      0.00000
       1150      0.25780      0.25780      0.00000
       1151      0.25780      0.25780      0.00000
       1152      0.25780      0.25780      0.00000
       1153      0.25836      0.25836      0.00000
       1154      0.25836      0.25836      0.00000
       1155      0.25836      0.25836      0.00000
       1156      0.25856      0.25856      0.00000
       1157      0.25856      0.25856      0.00000
       1158      0.25856      0.25856      0.00000
       1159      0.25856      0.25856      0.00000
       1160      0.25856      0.25856      0.00000
       1161      0.25856      0.25856      0.00000
       1162      0.25861      0.25861      0.00000
       1163      0.25861      0.25861      0.00000
       1164      0.25861      0.25861      0.00000
       1165      0.25886      0.25886      0.00000
       1166      0.25886      0.25886      0.00000
       1167      0.25886      0.25886      0.00000
       1168      0.25935      0.25935      0.00000
       1169      0.26535      0.26535      0.00000
       1170      0.26535      0.26535      0.00000
       1171      0.26535      0.26535      0.00000
       1172      0.26535      0.26535      0.00000
       1173      0.26535      0.26535      0.00000
       1174      0.26535      0.26535      0.00000
       1175      0.26777      0.26777      0.00000
       1176      0.26777      0.26777      0.00000
       1177      0.26777      0.26777      0.00000
       1178      0.26777      0.26777      0.00000
       1179      0.26777      0.26777      0.00000
       1180      0.26777      0.26777      0.00000
       1181      0.26787      0.26787      0.00000
       1182      0.26787      0.26787      0.00000
       1183      0.26787      0.26787      0.00000
       1184      0.26787      0.26787      0.00000
       1185      0.26787      0.26787      0.00000
       1186      0.26787      0.26787      0.00000
       1187      0.27019      0.27019      0.00000
       1188      0.27019      0.27019      0.00000
       1189      0.27019      0.27019      0.00000
       1190      0.27031      0.27031      0.00000
       1191      0.27031      0.27031      0.00000
       1192      0.27031      0.27031      0.00000
       1193      0.32206      0.32206      0.00000
       1194      0.32551      0.32551      0.00000
       1195      0.32551      0.32551      0.00000
       1196      0.32551      0.32551      0.00000
       1197      0.32991      0.32991      0.00000
       1198      0.32991      0.32991      0.00000
       1199      0.32991      0.32991      0.00000
       1200      0.33739      0.33739      0.00000
       1201      0.34807      0.34807      0.00000
       1202      0.34807      0.34807      0.00000
       1203      0.34807      0.34807      0.00000
       1204      0.34811      0.34811      0.00000
       1205      0.34811      0.34811      0.00000
       1206      0.35608      0.35608      0.00000
       1207      0.35608      0.35608      0.00000
       1208      0.35608      0.35608      0.00000
       1209      0.36108      0.36108      0.00000
       1210      0.36108      0.36108      0.00000
       1211      0.36108      0.36108      0.00000
       1212      0.36488      0.36488      0.00000
       1213      0.36488      0.36488      0.00000
       1214      0.36493      0.36493      0.00000
       1215      0.36493      0.36493      0.00000
       1216      0.36493      0.36493      0.00000
       1217      0.37557      0.37557      0.00000
       1218      0.37557      0.37557      0.00000
       1219      0.37557      0.37557      0.00000
       1220      0.37558      0.37558      0.00000
       1221      0.37558      0.37558      0.00000
       1222      0.37558      0.37558      0.00000
       1223      0.37558      0.37558      0.00000
       1224      0.37558      0.37558      0.00000
       1225      0.37558      0.37558      0.00000
       1226      0.37559      0.37559      0.00000
       1227      0.37559      0.37559      0.00000
       1228      0.37559      0.37559      0.00000
       1229      0.37638      0.37638      0.00000
       1230      0.37638      0.37638      0.00000
       1231      0.37638      0.37638      0.00000
       1232      0.37638      0.37638      0.00000
       1233      0.37638      0.37638      0.00000
       1234      0.37671      0.37671      0.00000
       1235      0.37671      0.37671      0.00000
       1236      0.37671      0.37671      0.00000
       1237      0.37720      0.37720      0.00000
       1238      0.37720      0.37720      0.00000
       1239      0.37720      0.37720      0.00000
       1240      0.37777      0.37777      0.00000
       1241      0.40938      0.40938      0.00000
       1242      0.40938      0.40938      0.00000
       1243      0.40938      0.40938      0.00000
       1244      0.41005      0.41005      0.00000
       1245      0.41005      0.41005      0.00000
       1246      0.41005      0.41005      0.00000
       1247      0.41005      0.41005      0.00000
       1248      0.41005      0.41005      0.00000
       1249      0.41005      0.41005      0.00000
       1250      0.41073      0.41073      0.00000
       1251      0.41073      0.41073      0.00000
       1252      0.41073      0.41073      0.00000
       1253      0.42535      0.42535      0.00000
       1254      0.42535      0.42535      0.00000
       1255      0.42535      0.42535      0.00000
       1256      0.42535      0.42535      0.00000
       1257      0.42535      0.42535      0.00000
       1258      0.42535      0.42535      0.00000
       1259      0.42776      0.42776      0.00000
       1260      0.42776      0.42776      0.00000
       1261      0.42776      0.42776      0.00000
       1262      0.42776      0.42776      0.00000
       1263      0.42776      0.42776      0.00000
       1264      0.42776      0.42776      0.00000
       1265      0.42791      0.42791      0.00000
       1266      0.42791      0.42791      0.00000
       1267      0.42791      0.42791      0.00000
       1268      0.42791      0.42791      0.00000
       1269      0.42791      0.42791      0.00000
       1270      0.42791      0.42791      0.00000
       1271      0.43013      0.43013      0.00000
       1272      0.43013      0.43013      0.00000
       1273      0.43013      0.43013      0.00000
       1274      0.43041      0.43041      0.00000
       1275      0.43041      0.43041      0.00000
       1276      0.43041      0.43041      0.00000
       1277      0.43949      0.43949      0.00000
       1278      0.43949      0.43949      0.00000
       1279      0.43949      0.43949      0.00000
       1280      0.44236      0.44236      0.00000
       1281      0.44236      0.44236      0.00000
       1282      0.44236      0.44236      0.00000
       1283      0.44236      0.44236      0.00000
       1284      0.44236      0.44236      0.00000
       1285      0.44236      0.44236      0.00000
       1286      0.44614      0.44614      0.00000
       1287      0.44690      0.44690      0.00000
       1288      0.44690      0.44690      0.00000
       1289      0.44690      0.44690      0.00000
       1290      0.44727      0.44727      0.00000
       1291      0.44727      0.44727      0.00000
       1292      0.44727      0.44727      0.00000
       1293      0.44757      0.44757      0.00000
       1294      0.44757      0.44757      0.00000
       1295      0.44757      0.44757      0.00000
       1296      0.44817      0.44817      0.00000
       1297      0.44817      0.44817      0.00000
       1298      0.44817      0.44817      0.00000
       1299      0.44818      0.44818      0.00000
       1300      0.44818      0.44818      0.00000
       1301      0.44931      0.44931      0.00000
       1302      0.44931      0.44931      0.00000
       1303      0.44931      0.44931      0.00000
       1304      0.44994      0.44994      0.00000
       1305      0.44994      0.44994      0.00000
       1306      0.44994      0.44994      0.00000
       1307      0.44994      0.44994      0.00000
       1308      0.44994      0.44994      0.00000
       1309      0.44994      0.44994      0.00000
       1310      0.45065      0.45065      0.00000
       1311      0.45065      0.45065      0.00000
       1312      0.45065      0.45065      0.00000
       1313      0.45065      0.45065      0.00000
       1314      0.45065      0.45065      0.00000
       1315      0.45065      0.45065      0.00000
       1316      0.45453      0.45453      0.00000
       1317      0.45453      0.45453      0.00000
       1318      0.45453      0.45453      0.00000
       1319      0.45453      0.45453      0.00000
       1320      0.45453      0.45453      0.00000
       1321      0.45453      0.45453      0.00000
       1322      0.45640      0.45640      0.00000
       1323      0.45640      0.45640      0.00000
       1324      0.45640      0.45640      0.00000
       1325      0.46494      0.46494      0.00000
       1326      0.46494      0.46494      0.00000
       1327      0.46494      0.46494      0.00000
       1328      0.46541      0.46541      0.00000
       1329      0.46541      0.46541      0.00000
       1330      0.46541      0.46541      0.00000
       1331      0.46541      0.46541      0.00000
       1332      0.46541      0.46541      0.00000
       1333      0.46541      0.46541      0.00000
       1334      0.46582      0.46582      0.00000
       1335      0.46582      0.46582      0.00000
       1336      0.46582      0.46582      0.00000
       1337      0.48585      0.48585      0.00000
       1338      0.48585      0.48585      0.00000
       1339      0.48585      0.48585      0.00000
       1340      0.48588      0.48588      0.00000
       1341      0.48588      0.48588      0.00000
       1342      0.48742      0.48742      0.00000
       1343      0.48742      0.48742      0.00000
       1344      0.48742      0.48742      0.00000
       1345      0.48914      0.48914      0.00000
       1346      0.48914      0.48914      0.00000
       1347      0.48914      0.48914      0.00000
       1348      0.49090      0.49090      0.00000
       1349      0.49090      0.49090      0.00000
       1350      0.49093      0.49093      0.00000
       1351      0.49093      0.49093      0.00000
       1352      0.49093      0.49093      0.00000
       1353      0.52257      0.52257      0.00000
       1354      0.52257      0.52257      0.00000
       1355      0.52257      0.52257      0.00000
       1356      0.52257      0.52257      0.00000
       1357      0.52257      0.52257      0.00000
       1358      0.52257      0.52257      0.00000
       1359      0.52383      0.52383      0.00000
       1360      0.52383      0.52383      0.00000
       1361      0.52383      0.52383      0.00000
       1362      0.52383      0.52383      0.00000
       1363      0.52383      0.52383      0.00000
       1364      0.52383      0.52383      0.00000
       1365      0.52383      0.52383      0.00000
       1366      0.52383      0.52383      0.00000
       1367      0.52383      0.52383      0.00000
       1368      0.52383      0.52383      0.00000
       1369      0.52383      0.52383      0.00000
       1370      0.52383      0.52383      0.00000
       1371      0.52506      0.52506      0.00000
       1372      0.52506      0.52506      0.00000
       1373      0.52506      0.52506      0.00000
       1374      0.52506      0.52506      0.00000
       1375      0.52506      0.52506      0.00000
       1376      0.52506      0.52506      0.00000
       1377      0.55644      0.55644      0.00000
       1378      0.55861      0.55861      0.00000
       1379      0.55861      0.55861      0.00000
       1380      0.55861      0.55861      0.00000
       1381      0.56072      0.56072      0.00000
       1382      0.56072      0.56072      0.00000
       1383      0.56072      0.56072      0.00000
       1384      0.56278      0.56278      0.00000
 =================================================

AMS application finished. Exiting.
NORMAL TERMINATION
     Total cpu time:     564.89
  Total system time:      62.36
 Total elapsed time:     704.41
