

 Parallel Execution: Process Information
 ==============================================================================
 Rank   Node Name                              NodeID   MyNodeRank  NodeMaster
    0   node056                                   0          0          0
    1   node056                                   0          1         -1
    2   node056                                   0          2         -1
    3   node056                                   0          3         -1
    4   node056                                   0          4         -1
    5   node056                                   0          5         -1
    6   node056                                   0          6         -1
    7   node056                                   0          7         -1
    8   node056                                   0          8         -1
    9   node056                                   0          9         -1
   10   node056                                   0         10         -1
   11   node056                                   0         11         -1
   12   node056                                   0         12         -1
   13   node056                                   0         13         -1
   14   node056                                   0         14         -1
   15   node056                                   0         15         -1
 ==============================================================================


May use up to 123235MB of RAM as shared memory on node 0

 *******************************************************************************
 *                                                                             *
 *  -------------------------------------                                      *
 *   Amsterdam Density Functional  (ADF)         2018                          *
 *  -------------------------------------                                      *
 *                                               r70630 2018-11-24             *
 *                                                                             *
 *                                                                             *
 *                              =================                              *
 *                              |               |                              *
 *                              |     A M S     |                              *
 *                              |               |                              *
 *                              =================                              *
 *                                                                             *
 *                                                                             *
 *   Online information and documentation:  https://www.scm.com/support/       *
 *   E-mail:  support@scm.com   info@scm.com                                   *
 *                                                                             *
 *   Scientific publications using ADF results must be properly referenced     *
 *   See the User Manuals (or the web site) for recommended citations          *
 *   The terms and conditions of the End User License Agreement apply to       *
 *   the use of ADF, https://www.scm.com/license-terms/                        *
 *                                                                             *
 **********************  x86_64_linux_intel / intelmpi  ************************
 
 Licensed to: Dr. Ralf Tonner / Philipps-Universt?t, Theoretical Surface Chemistry Group / Marburg / DE
 SCM User ID: u12265
  
 AMS 2018  RunTime: Feb20-2019 19:31:02  Nodes: 1  Procs: 16

 AMS jobname: ams
 AMS jobid  : 1099654268

 Start   directory: /local/2969269.1.parallel_long/
 Results directory: /local/2969269.1.parallel_long/ams.results/
 Scratch directory: /local/2969269.1.parallel_long/amstmp_ams_kid0.1099654268/

       ****************************
       * SINGLE POINT CALCULATION *
       ****************************
 
---------------
Geometry
---------------
Atoms
  Index Symbol       x (bohr)       y (bohr)       z (bohr)
      1     Ni     0.00000000     0.00000000     0.00000000
      2      O     3.94007897     3.94007897     3.94007897
 
Lattice vectors (bohr)
      1     0.00000000     3.94007897     3.94007897
      2     3.94007897     0.00000000     3.94007897
      3     3.94007897     3.94007897     0.00000000
 
Atoms
  Index Symbol   x (angstrom)   y (angstrom)   z (angstrom)
      1     Ni     0.00000000     0.00000000     0.00000000
      2      O     2.08500000     2.08500000     2.08500000
 
Lattice vectors (angstrom)
      1     0.00000000     2.08500000     2.08500000
      2     2.08500000     0.00000000     2.08500000
      3     2.08500000     2.08500000     0.00000000
 
Total System Charge             0.00000
 

 *******************************************************************************
 *                                                                             *
 *  -------------------------------------                                      *
 *   Amsterdam Density Functional  (ADF)         2018                          *
 *  -------------------------------------                                      *
 *                                               r70630 2018-11-24             *
 *                                                                             *
 *                                                                             *
 *                             ===================                             *
 *                             |                 |                             *
 *                             |     B A N D     |                             *
 *                             |                 |                             *
 *                             ===================                             *
 *                                                                             *
 *                                                                             *
 *   Online information and documentation:  https://www.scm.com/support/       *
 *   E-mail:  support@scm.com   info@scm.com                                   *
 *                                                                             *
 *   Scientific publications using ADF results must be properly referenced     *
 *   See the User Manuals (or the web site) for recommended citations          *
 *   The terms and conditions of the End User License Agreement apply to       *
 *   the use of ADF, https://www.scm.com/license-terms/                        *
 *                                                                             *
 **********************  x86_64_linux_intel / intelmpi  ************************
 
 Licensed to: Dr. Ralf Tonner / Philipps-Universt?t, Theoretical Surface Chemistry Group / Marburg / DE
 SCM User ID: u12265
  
 BAND 2018  RunTime: Feb20-2019 19:31:08  Nodes: 1  Procs: 16

 AMS jobname: ams
 AMS jobid  : 1099654268

 Start   directory: /local/2969269.1.parallel_long/
 Results directory: /local/2969269.1.parallel_long/ams.results/
 Scratch directory: /local/2969269.1.parallel_long/amstmp_ams_kid0.1099654268/


 Title: NiO DOS

 
-----------------
Band Engine Input
-----------------
 
    Title NiO DOS
    KSpace 
       Symmetric KInteg=3
       Type Symmetric
    End
    Basis
       Type TZP
       Core Large
    End
    XC
       GGA Becke Perdew
    End
    DOS
       Enabled     True
    End
 

   LockSharedArrayModule: size of slices    32 exact locking     T

 Using the following basis set files:
 
 Ni             : /home/ag_tonner/chemsoft/lx24-amd64/adf2018.105/atomicdata/Band/TZP/Ni.3p
 O              : /home/ag_tonner/chemsoft/lx24-amd64/adf2018.105/atomicdata/Band/TZP/O.1s



 =====================
 C O N F I N E M E N T
 =====================
  
 Basis functions confinement radius         8.358
 Width                                      0.836



 ===============================
 M O D E L   P A R A M E T E R S
 ===============================
  
 DENSITY FUNCTIONAL POTENTIAL (scf)
    LDA:                               VWN                                      
    Gradient Corrections:              Becke88 Perdew86                        == Not Default ==
 DENSITY FUNCTIONAL ENERGY (post-scf)
    Gradient Corrections:              Becke88 Perdew86 PW91x PW91c EV93x PW...== Not Default ==

 SPIN  (restricted / unrestr.)
    Molecule:                          Restricted                               

 OTHER ASPECTS
    Relativistic Corrections:          ---                                      

    Nuclear Charge Density Model:      Point Charge Nuclei                      



 ========================
 S. C. F.   O P T I O N S
 ========================
  

 * DIIS settings info for DIRAC   *
    Cond              0.1E+07
    CLarge          20.00
    CHuge           50.00
    DiMix            1.00
    IopPly              1
    NCyDmp              5
    IPrint              0
    Adaptable           F
    Method         diis                
    Dimix Decay fac  1.00

 * DIIS settings info for SCF     *
    Cond              0.1E+07
    CLarge          20.00
    CHuge           20.00
    DiMix            0.20
    IopPly              1
    NCyDmp              1
    IPrint              0
    Adaptable           T
    Method         DIIS                
    Dimix Decay fac  1.00
 growth factor   1.10000000000000     
 shrink factor  0.909090909100000     

    Mix            0.0750
    Degenerate          F
    Edegen          1.0E-04
    SCFRTX           9.90
    Convrg          1.4E-06
    Ncyclx            100
 getinp: use Shared Memory T
 blockIterator: dynamic default: T

 FunctionSetOverlapModule: use new routines     3


   size of slices for column locking    32 exact locking




                             **  R A D I A L   F U N C T I O N S  **

 TOTAL NR. OF TYPES OF ATOMS                              2




                             ---------------------
                                   T Y P E   1
                             ---------------------

 RADIAL POINTS                                         3000




 ............................ D I R A C ................................

 NUCLEAR CHARGE                                28.0000               **>  Ni  <**
 (POINT NUCLEUS)
 VALENCE CHARGE                                10.0000
 NET CHARGE                                     0.0000

 VALENCE ORBITALS INCLUDED IN THE CRYSTAL BASIS
 NR. OF (RADIAL) CORE FUNCTIONS                 5
 Radial grid       nr of points               3000
                   range                      0.10E-05     0.10E+03
  
  ** SCF-FUNCTIONAL INFO **
    SCALAR
  
 Self consistent error   0.48E-08


  Orbital    Q         E(a.u.)     E(eV)           <R>
 -------------------------------------------------------------------
  1S         2.00   -298.393032      -8119.6875   0.055
  2S         2.00    -35.187329       -957.4959   0.248
  2P         6.00    -30.692876       -835.1956   0.217
  3S         2.00     -3.783517       -102.9547   0.753
  3P         6.00     -2.416121        -65.7460   0.788
  4S         1.00     -0.166051         -4.5185   3.046
  3D         9.00     -0.182493         -4.9659   1.104


 Sum (energy eigenvalues)                    -875.1902
 Total energy LDA                           -1505.6505
              + Becke88                     -1509.5308
              + Becke88+Perdew86            -1508.5525
              + Perdew-Wang (91) X          -1509.4994
              + Perdew-Wang (91) X+C        -1508.4495
              + EV93x+PW91c                 -1508.6179
              + PW86x+Perdew86c             -1508.6540
              + Becke88+LYP                 -1510.8438
              + Becke (alt)                 -1509.5308
              + PBE                         -1508.0684
              + RPBE                        -1508.2673
 Kinetic energy                              1507.3802
 Classical e-e repulsion                      652.1991
 e-nucl. attraction.                        -3604.7244

 ......................................................................




 SLATER TYPE ORBITAL SETS
   3   2    3.3500
   3   2    7.0000
   4   0    0.9500
   4   0    2.5000
   4   1    1.4700
 nRadialFuncs=           0
 summary of added auto gaussians
                   Type             valence
            Spher. Harm                 zlm
    Nr. of radial func.                   0
 summary of added auto kin gaussians
                   Type     valence kinetic
            Spher. Harm                 zlm
    Nr. of radial func.                   0

 NR. OF RADIAL VALENCE ORBITALS                           7
 NR. OF RADIAL CORE ORBITALS                              5
 NR. OF RADIAL FIT FUNCTIONS                              0




                             ---------------------
                                   T Y P E   2
                             ---------------------

 RADIAL POINTS                                         3000




 ............................ D I R A C ................................

 NUCLEAR CHARGE                                 8.0000               **>  O  <**
 (POINT NUCLEUS)
 VALENCE CHARGE                                 6.0000
 NET CHARGE                                     0.0000

 VALENCE ORBITALS INCLUDED IN THE CRYSTAL BASIS
 NR. OF (RADIAL) CORE FUNCTIONS                 1
 Radial grid       nr of points               3000
                   range                      0.10E-05     0.10E+03
  
  ** SCF-FUNCTIONAL INFO **
    SCALAR
  
 Self consistent error   0.68E-08


  Orbital    Q         E(a.u.)     E(eV)           <R>
 -------------------------------------------------------------------
  1S         2.00    -18.917843       -514.7807   0.200
  2S         2.00     -0.882521        -24.0146   1.141
  2P         4.00     -0.335746         -9.1361   1.262


 Sum (energy eigenvalues)                     -40.9437
 Total energy LDA                             -74.4707
              + Becke88                       -75.2980
              + Becke88+Perdew86              -75.0259
              + Perdew-Wang (91) X            -75.2795
              + Perdew-Wang (91) X+C          -75.0006
              + EV93x+PW91c                   -75.2483
              + PW86x+Perdew86c               -75.0967
              + Becke88+LYP                   -75.5723
              + Becke (alt)                   -75.2980
              + PBE                           -74.9475
              + RPBE                          -75.0251
 Kinetic energy                                74.8100
 Classical e-e repulsion                       36.4363
 e-nucl. attraction.                         -177.9192

 ......................................................................




 SLATER TYPE ORBITAL SETS
   2   0    2.8800
   2   0    7.5800
   2   1    1.1200
   2   1    4.0800
   3   2    2.0000
 nRadialFuncs=           0
 summary of added auto gaussians
                   Type             valence
            Spher. Harm                 zlm
    Nr. of radial func.                   0
 summary of added auto kin gaussians
                   Type     valence kinetic
            Spher. Harm                 zlm
    Nr. of radial func.                   0

 NR. OF RADIAL VALENCE ORBITALS                           7
 NR. OF RADIAL CORE ORBITALS                              1
 NR. OF RADIAL FIT FUNCTIONS                              0



 ======================================================
 R A N G E S    F O R    A T O M I C    O R B I T A L S
 ======================================================
  
   --------------------------------------------------------------------------------
                            valence            core valence kinetic    core kinetic
   --------------------------------------------------------------------------------

             Cutoff       1.000E-06       1.000E-06       1.000E-06       1.000E-06
   --------------------------------------------------------------------------------
 
   --------------------------------------------------------------------------------
               Type         valence            core valence kinetic    core kinetic
   --------------------------------------------------------------------------------
                 Ni           14.53            7.72           14.99            7.49
                  O           12.39            2.75           12.70            2.77
   --------------------------------------------------------------------------------
 



 ====================
 R U N    C O N F I G
 ====================
  
 
 Use Symmetry  .  .  .  .  .  .  .  .  .  .  .  .  .  .  .  .  T
 Calculate gradient of basis  .  .  .  .  .  .  .  .  .  .  .  F
 Calculate sec. der. of basis .  .  .  .  .  .  .  .  .  .  .  F
 Calculate operator T working on basis .  .  .  .  .  .  .  .  T
 Calculate dk-basis  .  .  .  .  .  .  .  .  .  .  .  .  .  .  F
 Calculate gradient of fit .  .  .  .  .  .  .  .  .  .  .  .  T
 Calculate sec. der. of fit.  .  .  .  .  .  .  .  .  .  .  .  T
 Calculate gradient of fit pot.  .  .  .  .  .  .  .  .  .  .  F
 Kin. energy via grad.  .  .  .  .  .  .  .  .  .  .  .  .  .  F
 Turnover rule for xc.  .  .  .  .  .  .  .  .  .  .  .  .  .  F
 Calculate gradient of energy .  .  .  .  .  .  .  .  .  .  .  F
 Calculate analytical strain derivatives  .  .  .  .  .  .  .  F
 Calculate kin. energy density.  .  .  .  .  .  .  .  .  .  .  F
 Calculate nuc. grad of kin. energy density  .  .  .  .  .  .  F
 Calculate der. of density .  .  .  .  .  .  .  .  .  .  .  .  T
 Calculate second der. of density.  .  .  .  .  .  .  .  .  .  T
 Calculate nuc. grad. of density .  .  .  .  .  .  .  .  .  .  F
 Calculate nuc. grad. of grad. density .  .  .  .  .  .  .  .  F
 Exact rho during SCF.  .  .  .  .  .  .  .  .  .  .  .  .  .  T
 Exact grad. rho during SCF.  .  .  .  .  .  .  .  .  .  .  .  F
 Exact grad. rho post SCF  .  .  .  .  .  .  .  .  .  .  .  .  F
 Store history of dens. matrix.  .  .  .  .  .  .  .  .  .  .  T
 Store original Bloch functions  .  .  .  .  .  .  .  .  .  .  F
 Direct fit .  .  .  .  .  .  .  .  .  .  .  .  .  .  .  .  .  F
 Direct basis  .  .  .  .  .  .  .  .  .  .  .  .  .  .  .  .  T
 STO based fitting.  .  .  .  .  .  .  .  .  .  .  .  .  .  .  F
 Zlm fitting.  .  .  .  .  .  .  .  .  .  .  .  .  .  .  .  .  T
 Calculate fragment energy in mol. grid.  .  .  .  .  .  .  .  T
 Map atoms to unit cell .  .  .  .  .  .  .  .  .  .  .  .  .  T
 Calculate DOS .  .  .  .  .  .  .  .  .  .  .  .  .  .  .  .  T
 Calculate band structure  .  .  .  .  .  .  .  .  .  .  .  .  F
 Calculate EFG .  .  .  .  .  .  .  .  .  .  .  .  .  .  .  .  F
 Calculate properties.  .  .  .  .  .  .  .  .  .  .  .  .  .  T
 Calculate kinetic energy  .  .  .  .  .  .  .  .  .  .  .  .  T
 Save file tape10 .  .  .  .  .  .  .  .  .  .  .  .  .  .  .  F
 Save file Points .  .  .  .  .  .  .  .  .  .  .  .  .  .  .  F



 ==================================================
 G E O M E T R Y    I N    X - Y - Z    F O R M A T
 ==================================================
  
 Ni      1.042500000     0.000000000     0.000000000
 O      -1.042500000     0.000000000     0.000000000
 VEC1     0.000000000     2.085000000     2.085000000
 VEC2     2.085000000     0.000000000     2.085000000
 VEC3     2.085000000     2.085000000     0.000000000

   Total nr. of atoms:          2





                       3 - D I M E N S I O N A L   C R Y S T A L




   REAL SPACE LATTICE VECTORS                         LENGTH
   --------------------------                         ------
   1)   0.0000000000   3.9400789706   3.9400789706     5.572
   2)   3.9400789706   0.0000000000   3.9400789706     5.572
   3)   3.9400789706   3.9400789706   0.0000000000     5.572

   ----------------------------------------
   Angles between lattice vectors
   ----------------------------------------

     pair          angle

     2 1            60.000000
     3 1            60.000000
     3 2            60.000000
 

   Volume of unit cell (a.u.):               122.33
   Volume of unit cell (Angstrom**3):         18.13



   K-SPACE LATTICE VECTORS                            LENGTH
   -----------------------                            ------
   1)  -0.7973425601   0.7973425601   0.7973425601     1.381
   2)   0.7973425601  -0.7973425601   0.7973425601     1.381
   3)   0.7973425601   0.7973425601  -0.7973425601     1.381


 INTER-ATOMIC DISTANCES (REDUCED)
 --------------------------------
   2)
    3.9401


 SMALLEST INTERATOMIC DISTANCE =      3.940078970604
 BeckeGrid: periodic partition function using cells up to order           14




                             **  K-space integration  **

 General integration parameter                            3

 BZ Volumes
   Total volume                                      0.81744E-02
   Irreducible (  48 operators)                      0.17030E-03
   Numerical integration                             0.17030E-03


 Total nr. of K-points                                   18
 Nr. of symmetry unique points                           15
 Nr. of simplices                                         3
 Nr. of points per simplex                               10


    No.  Sym. unique no.      Cart. coordinates            Natural coord.s
 --------------------------------------------------------------------------------
     1           1            0.0000  0.0000  0.0000       0.0000  0.0000  0.0000
     2           2            0.7973  0.0000  0.0000       0.0000  0.5000  0.5000
     3           3            0.7973  0.0000  0.3987       0.2500  0.7500  0.5000
     4           4            0.7973 -0.1993  0.1993       0.0000  0.6250  0.3750
     5           5            0.3987  0.0000  0.0000       0.0000  0.2500  0.2500
     6           6            0.7973  0.0000  0.1993       0.1250  0.6250  0.5000
     7           7            0.3987  0.0000  0.1993       0.1250  0.3750  0.2500
     8           8            0.3987 -0.0997  0.0997       0.0000  0.3125  0.1875
     9           9            0.7973 -0.0997  0.0997       0.0000  0.5625  0.4375
    10          10            0.7973 -0.0997  0.2990       0.1250  0.6875  0.4375
    11          11            0.3987 -0.3987  0.3987       0.0000  0.5000  0.0000
    12          12            0.1993 -0.1993  0.1993       0.0000  0.2500  0.0000
    13          13            0.5980 -0.2990  0.2990      -0.0000  0.5625  0.1875
    14          14            0.5980 -0.1993  0.3987       0.1250  0.6250  0.2500
    15           4            0.5980 -0.0000  0.5980       0.3750  0.7500  0.3750
    16          15            0.2990 -0.0000  0.2990       0.1875  0.3750  0.1875
    17          13            0.4983 -0.1993  0.4983       0.1875  0.6250  0.1875
    18          10            0.6977 -0.0000  0.4983       0.3125  0.7500  0.4375



 =========
 C E L L S
 =========
  

   Nr. of cells for valence functions:        561



 ===========================
 L I N E A R   S C A L I N G
 ===========================
  
 Neglecting functions
              Valence  1.00E-06
                 Core  1.00E-06
                  Fit  0.00E+00
            Multipole  1.00E-08
   Screening function  3.16E-05



 =========================================
 N U M E R I C A L   I N T E G R A T I O N
 =========================================
  
 Becke grid quality: NORMAL         
  
 Lebedev angular grid order:             min:  11 max:  31
 Nr. of radial points:                   min:  55 max:  77

 Total nr. of points                                  44880
 Block length                                            55
 Nr. of unique blocks                                    17
 Total nr. of blocks                                    816

 Percentage dummy points                               0.00%
 Nr. of k-points processed together in baspnt            30
 Nr. of symmetry operators (real space)                  48
 Symmetry operators in k-space                           48



 Total charge,    analytically                           36.000000000000
                  numerically                            35.999946497717
                  relative error                     -0.15E-05

 Valence density, analytically                           16.000000000000
                  numerically                            15.999924172467
                  relative error                     -0.47E-05



 INTEGRATED CHARGE PER ATOM:

  SET      TOTAL CHARGE      REL. ERROR      Valence CHARGE    REL. ERROR
 ------------------------------------------------------------------------
   1      27.9999898472      -0.363E-06      9.9999657142      -0.343E-05
   2       7.9999566505      -0.542E-05      5.9999584582      -0.692E-05

 Norms of functions from routine baspnt
 Maximum error in norms     1.049E-04 for function       17
 Minimum accuracy required  1.000E-03

 Norms of functions from routine corpnt
 Maximum error in norms     7.094E-06 for function        6
 Minimum accuracy required  1.000E-03

 Sparseness info - valence
   nr. of functions              38
   max. nr. of functions         38
   min. nr. of functions         33
   avr. nr. of functions         37
   percentage stored           97.4
 

 Sparseness info - core
   nr. of functions              10
   max. nr. of functions         10
   min. nr. of functions          5
   avr. nr. of functions          8
   percentage stored           80.0
 

 Frozen core overlap error  8.87E-04
 PrepareHam: needLdotB F

 FunctionSetTransformOption:     2
   Cut off:   1.00E-10




 ========================
 Density Fitting (zlmFit)
 ========================
  
 ZlmFit Fit Quality: NORMAL         
  
 Max L-expansion:                        min:   6 max:   7
 Nr. of radial interpolation points:     min:  42 max:  60
 BeckeGrid: periodic partition function using cells up to order           12
 skipDiagonalization F parmix=  7.500000000000000E-002 ncylx=         100
 restartSCF F
 forceRestartSolution F



                                          *******************************
                                          *  S C F   P R O C E D U R E  *
                                          *******************************
  

 Nr. of basis functions                   38
 Nr. of core functions                    10
 Nr. of fit functions                      0
 Nr. of symmetry unique K-points          15
 Valence charge                           16.00

 Settings for convergence
 --------------------------------------------------------------------------------
   Initial density:          psi
 --------------------------------------------------------------------------------

 cyc=  0 err=0.00E+00 cpu=   6s ela=   7s
 cyc=  1 err=8.51E-01 meth=m nvec= 1 mix=0.0750 cpu=   6s ela=   7s fit=4.05E-03
 cyc=  2 err=6.28E-01 meth=d nvec= 2 mix=0.2000 cpu=   7s ela=   7s fit=2.62E-03
 cyc=  3 err=2.46E-01 meth=d nvec= 3 mix=0.2000 cpu=   6s ela=   7s fit=2.13E-03
 cyc=  4 err=1.51E-01 meth=d nvec= 4 mix=0.2000 cpu=   6s ela=   6s fit=2.15E-03
 cyc=  5 err=1.46E-01 meth=m nvec= 1 mix=0.0825 cpu=   6s ela=   6s fit=2.27E-03
 cyc=  6 err=1.05E-01 meth=d nvec= 2 mix=0.2000 cpu=   6s ela=   7s fit=2.67E-03
 cyc=  7 err=5.58E-02 meth=d nvec= 3 mix=0.2000 cpu=   6s ela=   6s fit=3.29E-03
 cyc=  8 err=2.06E-02 meth=d nvec= 3 mix=0.2200 cpu=   6s ela=   7s fit=3.41E-03
 cyc=  9 err=1.07E-02 meth=d nvec= 4 mix=0.2200 cpu=   6s ela=   6s fit=3.55E-03
 cyc= 10 err=1.53E-03 meth=d nvec= 4 mix=0.2420 cpu=   6s ela=   7s fit=3.55E-03
 cyc= 11 err=1.06E-03 meth=d nvec= 3 mix=0.2662 cpu=   7s ela=   8s fit=3.57E-03
 cyc= 12 err=1.85E-04 meth=d nvec= 4 mix=0.2662 cpu=   6s ela=   7s fit=3.57E-03
 cyc= 13 err=3.22E-05 meth=d nvec= 4 mix=0.2928 cpu=   7s ela=   7s fit=3.57E-03
 cyc= 14 err=2.12E-05 meth=d nvec= 4 mix=0.3221 cpu=   6s ela=   7s fit=3.57E-03
 cyc= 15 err=7.90E-06 meth=d nvec= 4 mix=0.3543 cpu=   6s ela=   7s fit=3.57E-03

 CONVERGENCE REACHED
 cyc= 16 err=8.01E-07 meth=d nvec= 4 mix=0.3897 cpu=   6s ela=   6s fit=3.57E-03


         -------------------- CYCLE   17 --------------------
 Self consistent error (density)                       8.01E-07



                                             *************************
                                             *  P R O P E R T I E S  *
                                             *************************
  



 ===================================
 B A N D   E N E R G Y   R A N G E S
 ===================================
  
 The energies below are in Hartree.
 =================================================
       band          min          max   occupation
 =================================================
          1     -0.97627     -0.92106      2.00000
          2     -0.52395     -0.34025      2.00000
          3     -0.45327     -0.34025      2.00000
          4     -0.43650     -0.34025      2.00000
          5     -0.33377     -0.26910      2.00000
          6     -0.29914     -0.26045      2.00000
          7     -0.29914     -0.25473      2.00000
          8     -0.28680     -0.18167      1.63745
          9     -0.28680     -0.18167      0.36255
         10     -0.15249      0.11003      0.00000
         11      0.13703      0.57088      0.00000
         12      0.18119      0.57088      0.00000
         13      0.29699      0.57088      0.00000
         14      0.38590      0.82678      0.00000
         15      0.65100      1.00678      0.00000
         16      0.65100      1.07791      0.00000
 =================================================

----------------------------------------
Band gap information
----------------------------------------
 No band gap

 Fermi Energy:    -0.2270 a.u.
 Fermi Energy:    -6.1780 eV
 



 =============================
 E N E R G Y   A N A L Y S I S
 =============================
  
 Formation energy w.r.t. spherically-symmetric spin-restricted atoms

                                                             (a.u.)            (eV)     (kCal/mol)
 --------------------------------------------------------------------------------------------------

 Kinetic                                                       0.08883879       2.4174       55.75
 XC                                                           -0.34383913      -9.3563     -215.76
 Electrostatic                                                -0.47319888     -12.8764     -296.94
 V(atomic)*def                                                 0.29291825       7.9707      183.81
 V(def)*def                                                    0.02968508       0.8078       18.63
 --------------------------------------------------------------------------------------------------

 Final bond energy (BP)                                       -0.40559589     -11.0368     -254.52
 
 Fit error correction used (Vdef*err)                         -0.00004338      -0.0012       -0.03

 ==================================================================================================






 =======================
 F O R M   F A C T O R S
 =======================
  




 Form factors (amplitude and phase/pi)

 First line : direct projection 
 Second line: overlap taken into account

 N.B.: the coefficients in the expansion of the total coulomb potential
       due to the nuclear charges have been removed analytically.

 --------------------------------------------------------------------------------------------
                                       Total            Total     Deformation     Deformation
        Coordinates                  Density        Potential         Density       Potential
 --------------------------------------------------------------------------------------------

   1)      0      0      0      36.0000  1.00   56.5298  0.00    0.0001  0.00    0.8582  1.00
       0.000  0.000  0.000      35.9976  1.00   56.5253 -0.00    0.0001  0.00    0.8582  1.00

   2)     -1     -1     -1      16.2723  0.50   16.2713  0.50    0.3051 -0.50    0.3060 -0.50
      -0.797 -0.797 -0.797      16.2703  0.50   16.2720  0.50    0.3051 -0.50    0.3060 -0.50

   3)     -1     -1      0      25.8434  1.00   25.8434  1.00    0.0510  1.00    0.0512  1.00
       0.000  0.000 -1.595      25.8402  1.00   25.8450  1.00    0.0510  1.00    0.0512  1.00

 --------------------------------------------------------------------------------------------


   min. nr. of func/process                     3
   noper                                       48
   nfunc                                       48
   nprocsThisNode                              16
   nfuncThisProcess                             3
   safeMaxFuncSliceSize                         0
   requestedMaxFuncSliceSize                  128
   actual maxFuncSliceSize                      3
   numSlices                                    1
   storeCoopPerBasPair                          F
   nEnergies                                  154
       Nr. of bands used for DOS:     15
   nband_dosplot                               15
   bandSliceSize                               15
   num band slices                              1



 =======================================
 M U L L I K E N   P O P U L A T I O N S
 =======================================
  

 BASISFUNCTION         Q
 --------------------------------
 1/Ni/NO/4s                  0.633
 1/Ni/NO/3d_xy               1.896
 1/Ni/NO/3d_yz               1.896
 1/Ni/NO/3d_z2               1.291
 1/Ni/NO/3d_xz               1.896
 1/Ni/NO/3d_x2-y2            1.291
 1/Ni/STO3.35/3d_xy          0.049
 1/Ni/STO3.35/3d_yz          0.049
 1/Ni/STO3.35/3d_z2          0.057
 1/Ni/STO3.35/3d_xz          0.049
 1/Ni/STO3.35/3d_x2-y2       0.057
 1/Ni/STO7/3d_xy             0.027
 1/Ni/STO7/3d_yz             0.027
 1/Ni/STO7/3d_z2             0.029
 1/Ni/STO7/3d_xz             0.027
 1/Ni/STO7/3d_x2-y2          0.029
 1/Ni/STO0.95/4s            -0.633
 1/Ni/STO2.5/4s              0.027
 1/Ni/STO1.47/4p_y           0.188
 1/Ni/STO1.47/4p_z           0.188
 1/Ni/STO1.47/4p_x           0.188
                    -------------
 Charge on atom              9.262
 
 2/O/NO/2s                   2.032
 2/O/NO/2p_y                 1.412
 2/O/NO/2p_z                 1.412
 2/O/NO/2p_x                 1.412
 2/O/STO2.88/2s             -0.151
 2/O/STO7.58/2s              0.005
 2/O/STO1.12/2p_y            0.160
 2/O/STO1.12/2p_z            0.160
 2/O/STO1.12/2p_x            0.160
 2/O/STO4.08/2p_y            0.031
 2/O/STO4.08/2p_z            0.031
 2/O/STO4.08/2p_x            0.031
 2/O/STO2/3d_xy              0.009
 2/O/STO2/3d_yz              0.009
 2/O/STO2/3d_z2              0.008
 2/O/STO2/3d_xz              0.009
 2/O/STO2/3d_x2-y2           0.008
                    -------------
 Charge on atom              6.738
 
 Total charge               16.000


 ATOM/ATOM OVERLAP MATRIX
 (OFF-DIAGONAL ELEMENTS HALF OF OVERLAP POPULATION)
 (order of atoms as on input)
 ATOM         CORE    1       2       3       4       5       6       7       8       9
           -------------------------------------------------------------------------------
   0)
      1 :  0.0816
   1)
      1 : -0.0172  8.8315
   2)
      1 : -0.0644  0.4481  6.3538
 EFERMI=      0.000000000000
 TOTALDOS
 NSPIN,NE= 1   154
  -7.5922907498293E-01   0.0000000000000E+00
  -7.5422907498293E-01   0.0000000000000E+00
  -7.4922907498293E-01   4.6678861152434E-15
  -7.4422907498293E-01   1.1669716687421E-03
  -7.3922907498293E-01   8.1688008410079E-03
  -7.3422907498293E-01   2.2312076929950E-02
  -7.2922907498293E-01   4.5866478490546E-02
  -7.2422907498293E-01   7.9514618949972E-02
  -7.1922907498293E-01   1.2386967698787E-01
  -7.1422907498293E-01   1.8615313572739E-01
  -7.0922907498293E-01   2.6302715872217E-01
  -7.0422907498293E-01   3.6671481689250E-01
  -6.9922907498293E-01   5.0334764932141E-01
  -6.9422907498293E-01   3.9979047997723E-01
  -6.8922907498293E-01   6.8135491214132E-05
  -6.8422907498293E-01   0.0000000000000E+00
  -6.7922907498293E-01   0.0000000000000E+00
  -3.0922907498293E-01   0.0000000000000E+00
  -3.0422907498293E-01   0.0000000000000E+00
  -2.9922907498293E-01   0.0000000000000E+00
  -2.9422907498293E-01   1.6152029214716E-04
  -2.8922907498293E-01   3.6370956163639E-03
  -2.8422907498293E-01   1.3596713164877E-02
  -2.7922907498293E-01   2.9659994911143E-02
  -2.7422907498293E-01   4.9990070519391E-02
  -2.6922907498293E-01   8.8541371746609E-02
  -2.6422907498293E-01   1.4651289581339E-01
  -2.5922907498293E-01   1.6813726437972E-01
  -2.5422907498293E-01   3.3745888404291E-01
  -2.4922907498293E-01   3.8406098388092E-01
  -2.4422907498293E-01   2.7228216602984E-01
  -2.3922907498293E-01   1.7334551475219E-01
  -2.3422907498293E-01   8.7003930814933E-02
  -2.2922907498293E-01   4.8572319569923E-02
  -2.2422907498293E-01   3.4504008317651E-02
  -2.1922907498293E-01   7.0941640742831E-02
  -2.1422907498293E-01   1.5651108171118E-01
  -2.0922907498293E-01   2.2490036780232E-01
  -2.0422907498293E-01   2.7025211634337E-01
  -1.9922907498293E-01   2.9515243096720E-01
  -1.9422907498293E-01   4.3168838636758E-01
  -1.8922907498293E-01   6.1542949641968E-01
  -1.8422907498293E-01   4.9457052726548E-01
  -1.7922907498293E-01   3.7526304471224E-01
  -1.7422907498293E-01   3.1855303696992E-01
  -1.6922907498293E-01   2.6062870394778E-01
  -1.6422907498293E-01   2.0613186863942E-01
  -1.5922907498293E-01   1.5234912198553E-01
  -1.5422907498293E-01   1.0115224671226E-01
  -1.4922907498293E-01   7.0509033912342E-02
  -1.4422907498293E-01   4.8201604540953E-02
  -1.3922907498293E-01   3.0596424719115E-02
  -1.3422907498293E-01   1.8963901135866E-02
  -1.2922907498293E-01   1.1558866500368E-02
  -1.2422907498293E-01   6.1927317284466E-03
  -1.1922907498293E-01   2.5013976058937E-03
  -1.1422907498293E-01   4.8486413271358E-04
  -1.0922907498293E-01   2.3712855044926E-06
  -1.0422907498293E-01   1.3371137826967E-04
  -9.9229074982929E-02   3.4657386129906E-03
  -9.4229074982929E-02   1.4367125921457E-02
  -8.9229074982929E-02   3.2732780869948E-02
  -8.4229074982929E-02   6.1449688686261E-02
  -7.9229074982929E-02   9.9736649562529E-02
  -7.4229074982929E-02   1.4526541736952E-01
  -6.9229074982929E-02   1.8230798598300E-01
  -6.4229074982929E-02   2.4347514080944E-01
  -5.9229074982929E-02   4.1248862906295E-01
  -5.4229074982929E-02   5.3903651716195E-01
  -4.9229074982929E-02   5.1784130047655E-01
  -4.4229074982929E-02   6.1357685907922E-01
  -3.9229074982929E-02   1.1515485159311E+00
  -3.4229074982929E-02   6.4312825556265E-01
  -2.9229074982929E-02   1.5894990773108E+00
  -2.4229074982929E-02   3.3487511921440E-01
  -1.9229074982929E-02   3.2524578287880E-01
  -1.4229074982929E-02   3.0361556910184E-01
  -9.2290749829294E-03   2.8741588579273E-01
  -4.2290749829294E-03   2.7799298884886E-01
   7.7092501707063E-04   2.6005329603454E-01
   5.7709250170706E-03   2.5877109415757E-01
   1.0770925017071E-02   2.6674369596484E-01
   1.5770925017071E-02   2.8049768373261E-01
   2.0770925017071E-02   3.4376245153968E-01
   2.5770925017071E-02   3.2002328670498E-01
   3.0770925017071E-02   2.9889461987914E-01
   3.5770925017071E-02   1.5689242072214E-01
   4.0770925017071E-02   3.1857717600057E-02
   4.5770925017071E-02   3.3049940492127E-03
   5.0770925017071E-02   0.0000000000000E+00
   6.0770925017071E-02  -2.0469737016526E-15
   6.5770925017071E-02   0.0000000000000E+00
   7.0770925017071E-02   0.0000000000000E+00
   7.5770925017071E-02   1.5746051936394E-07
   8.0770925017071E-02   2.0544065853014E-05
   8.5770925017071E-02   1.0070246665374E-04
   9.0770925017071E-02   2.4525507067806E-04
   9.5770925017071E-02   4.5420187792595E-04
   1.0077092501707E-01   7.2754288839743E-04
   1.0577092501707E-01   1.0652781020925E-03
   1.1077092501707E-01   1.4674075190111E-03
   1.1577092501707E-01   1.9339311391534E-03
   1.2077092501707E-01   2.4648489625192E-03
   1.2577092501707E-01   3.0601609891086E-03
   1.3077092501707E-01   3.7219108226186E-03
   1.3577092501707E-01   4.4771951000156E-03
   1.4077092501707E-01   5.3452242645264E-03
   1.4577092501707E-01   6.3264059534274E-03
   1.5077092501707E-01   7.4207728108977E-03
   1.5577092501707E-01   8.6949189687626E-03
   1.6077092501707E-01   1.0464597107101E-02
   1.6577092501707E-01   1.1992036583039E-02
   1.7077092501707E-01   1.3622114006733E-02
   1.7577092501707E-01   1.5365640948692E-02
   1.8077092501707E-01   1.7258991298682E-02
   1.8577092501707E-01   1.9314575567786E-02
   1.9077092501707E-01   2.1532404355201E-02
   1.9577092501707E-01   2.3912477660928E-02
   2.0077092501707E-01   2.6456557791863E-02
   2.0577092501707E-01   2.9202212981973E-02
   2.1077092501707E-01   3.2228195522799E-02
   2.1577092501707E-01   3.5851973455756E-02
   2.2077092501707E-01   4.1192518215548E-02
   2.2577092501707E-01   4.6720937108179E-02
   2.3077092501707E-01   5.1754332142898E-02
   2.3577092501707E-01   5.6640995359484E-02
   2.4077092501707E-01   6.1466090342119E-02
   2.4577092501707E-01   6.6227669300676E-02
   2.5077092501707E-01   7.2465058692213E-02
   2.5577092501707E-01   8.3189469049318E-02
   2.6077092501707E-01   9.2664068604413E-02
   2.6577092501707E-01   9.6981568250620E-02
   2.7077092501707E-01   9.9883158245726E-02
   2.7577092501707E-01   1.0175204970599E-01
   2.8077092501707E-01   1.0235027213395E-01
   2.8577092501707E-01   1.0159245953585E-01
   2.9077092501707E-01   9.9559606637353E-02
   2.9577092501707E-01   9.6627095551183E-02
   3.0077092501707E-01   9.2809919574276E-02
   3.0577092501707E-01   8.7245009253191E-02
   3.1077092501707E-01   7.9751497339368E-02
   3.1577092501707E-01   6.6960833696686E-02
   3.2077092501707E-01   4.7818789303229E-02
   3.2577092501707E-01   3.0309597945854E-02
   3.3077092501707E-01   1.5342900408191E-02
   3.3577092501707E-01   3.9307163524805E-03
   3.4077092501707E-01   3.5151508486844E-05
   3.4577092501707E-01   0.0000000000000E+00
   3.5077092501707E-01   0.0000000000000E+00
   3.5577092501707E-01   0.0000000000000E+00
   3.6077092501707E-01  -6.9388939039072E-18
   3.6577092501707E-01   1.3859043569997E-03
   3.7077092501707E-01   2.8426888496708E-02
   3.7577092501707E-01   5.6570425424685E-02
 ENDINPUT



 ======================
 Atomic Charge Analysis
 ======================
  
 Deformation charges with respect to neutral atoms.
 
   ----------------------------------------------------------
     Atom      Hirshfeld     Voronoi         CM5    Mulliken
   ----------------------------------------------------------
      1  Ni        0.267       0.325       0.516       0.738
      2  O        -0.267      -0.325      -0.516      -0.738
   ----------------------------------------------------------
      Total:      -0.000      -0.000      -0.000      -0.000
   ----------------------------------------------------------
 
 WARNING: matrix written, but never read. Matrix name: S(C/C)**-1


    =====================
     CALCULATION RESULTS
    =====================

Energy (hartree)            -0.40559589



 =================
 Timing Statistics
 =================
  
 Total Used :                     CPU=      117.76      System=       11.56     Elapsed=      136.88

 Calls  Section                     ( Mean, Percentage )
 ---------------------------------------------------------------------------------------------------
     3  ><      ................      0.51    1.30             0.25    6.37             0.99    2.17
     1  GETINP  ................      0.17    0.15             0.24    2.10             6.73    4.92
    18  EIGSYS  ................      6.45   98.55             0.59   91.53             7.07   92.92

AMS application finished. Exiting.
 NORMAL TERMINATION
     Total cpu time:     119.21
  Total system time:      12.00
 Total elapsed time:     139.16
