

 Parallel Execution: Process Information
 ==============================================================================
 Rank   Node Name                              NodeID   MyNodeRank  NodeMaster
    0   node012                                   0          0          0
    1   node012                                   0          1         -1
    2   node012                                   0          2         -1
    3   node012                                   0          3         -1
    4   node012                                   0          4         -1
    5   node012                                   0          5         -1
    6   node012                                   0          6         -1
    7   node012                                   0          7         -1
    8   node012                                   0          8         -1
    9   node012                                   0          9         -1
   10   node012                                   0         10         -1
   11   node012                                   0         11         -1
   12   node012                                   0         12         -1
   13   node012                                   0         13         -1
   14   node012                                   0         14         -1
   15   node012                                   0         15         -1
 ==============================================================================


May use up to 123235MB of RAM as shared memory on node 0

 *******************************************************************************
 *                                                                             *
 *  -------------------------------------                                      *
 *   Amsterdam Density Functional  (ADF)         2018                          *
 *  -------------------------------------                                      *
 *                                               r70630 2018-11-24             *
 *                                                                             *
 *                                                                             *
 *                              =================                              *
 *                              |               |                              *
 *                              |     A M S     |                              *
 *                              |               |                              *
 *                              =================                              *
 *                                                                             *
 *                                                                             *
 *   Online information and documentation:  https://www.scm.com/support/       *
 *   E-mail:  support@scm.com   info@scm.com                                   *
 *                                                                             *
 *   Scientific publications using ADF results must be properly referenced     *
 *   See the User Manuals (or the web site) for recommended citations          *
 *   The terms and conditions of the End User License Agreement apply to       *
 *   the use of ADF, https://www.scm.com/license-terms/                        *
 *                                                                             *
 **********************  x86_64_linux_intel / intelmpi  ************************
 
 Licensed to: Dr. Ralf Tonner / Philipps-Universt?t, Theoretical Surface Chemistry Group / Marburg / DE
 SCM User ID: u12265
  
 AMS 2018  RunTime: Feb13-2019 10:18:38  Nodes: 1  Procs: 16

 AMS jobname: ams
 AMS jobid  : 1478300999

 Start   directory: /local/2965865.1.parallel_long/
 Results directory: /local/2965865.1.parallel_long/ams.results/
 Scratch directory: /local/2965865.1.parallel_long/amstmp_ams_kid0.1478300999/

       ****************************
       * SINGLE POINT CALCULATION *
       ****************************
 
---------------
Geometry
---------------
Atoms
  Index Symbol       x (bohr)       y (bohr)       z (bohr)
      1      C     7.95274649     6.53111496    17.14262515
      2      C     8.71055586     8.89758851    16.25381087
      3      C     9.14727438     4.36723014    16.22386131
      4      C    10.98390160     4.55910368    14.32223927
      5      C    11.68246334     6.92040535    13.22237967
      6      C    10.55039679     9.08986207    14.35958881
      7      H    11.98560687     2.82978455    13.77423230
      8      H     8.66441028     2.50811422    16.97679550
      9      H     6.48816804     6.37897340    18.58533142
     10      H     7.87298055    10.61733539    17.02807100
     11      H    11.19803359    10.98615261    13.82801331
 
Lattice vectors (bohr)
      1    16.48056584     0.00000000     0.00000000
      2     0.00000000    14.28693452     0.00000000
 
Atoms
  Index Symbol   x (angstrom)   y (angstrom)   z (angstrom)
      1      C     4.20841220     3.45611720     9.07148656
      2      C     4.60942766     4.70840107     8.60114630
      3      C     4.84052914     2.31103867     8.58529768
      4      C     5.81243041     2.41257377     7.57900263
      5      C     6.18209337     3.66212080     6.99698199
      6      C     5.58302955     4.81014786     7.59876716
      7      H     6.34251001     1.49745749     7.28900983
      8      H     4.58500847     1.32723689     8.98373329
      9      H     3.43339067     3.37560735     9.83493384
     10      H     4.16620189     5.61845193     9.01086712
     11      H     5.92574418     5.81362159     7.31746952
 
Lattice vectors (angstrom)
      1     8.72113986     0.00000000     0.00000000
      2     0.00000000     7.56032016     0.00000000
 
Total System Charge             0.00000
 

 *******************************************************************************
 *                                                                             *
 *  -------------------------------------                                      *
 *   Amsterdam Density Functional  (ADF)         2018                          *
 *  -------------------------------------                                      *
 *                                               r70630 2018-11-24             *
 *                                                                             *
 *                                                                             *
 *                             ===================                             *
 *                             |                 |                             *
 *                             |     B A N D     |                             *
 *                             |                 |                             *
 *                             ===================                             *
 *                                                                             *
 *                                                                             *
 *   Online information and documentation:  https://www.scm.com/support/       *
 *   E-mail:  support@scm.com   info@scm.com                                   *
 *                                                                             *
 *   Scientific publications using ADF results must be properly referenced     *
 *   See the User Manuals (or the web site) for recommended citations          *
 *   The terms and conditions of the End User License Agreement apply to       *
 *   the use of ADF, https://www.scm.com/license-terms/                        *
 *                                                                             *
 **********************  x86_64_linux_intel / intelmpi  ************************
 
 Licensed to: Dr. Ralf Tonner / Philipps-Universt?t, Theoretical Surface Chemistry Group / Marburg / DE
 SCM User ID: u12265
  
 BAND 2018  RunTime: Feb13-2019 10:18:53  Nodes: 1  Procs: 16

 AMS jobname: ams
 AMS jobid  : 1478300999

 Start   directory: /local/2965865.1.parallel_long/
 Results directory: /local/2965865.1.parallel_long/ams.results/
 Scratch directory: /local/2965865.1.parallel_long/amstmp_ams_kid0.1478300999/

 
-----------------
Band Engine Input
-----------------
 
  Basis
   Type DZP
   Core large
  End
  XC
   MetaGGA TPSS
   dispersion Grimme3 BJdamp
  END
 KSpace
  Regular
   NumberOfPoints 1 1
  end 
 End
 NumericalQuality Good
 Unrestricted True
 Occupations
  1 15 // 14
 end
 Relativity
  Level Scalar
 End
 SCF
  Mixing 0.2
  Iterations 300
 End
 Convergence
 criterion 1E-6
 End
 UseSymmetry False
 Dependency basis=1e-8
 

   LockSharedArrayModule: size of slices    32 exact locking     T

 Using the following basis set files:
 
 C              : /home/ag_tonner/chemsoft/lx24-amd64/adf2018.105/atomicdata/Band/DZP/C.1s
 H              : /home/ag_tonner/chemsoft/lx24-amd64/adf2018.105/atomicdata/Band/DZP/H

 Settings for Grimme 3 dispersion correction

      damping                        BJ
      s6                          1.000
      a1                          0.454
      s8                          1.944
      a2                          4.475

 Other (technical) parameters

      alpha                      14.000
      version                         4
 



 =====================
 C O N F I N E M E N T
 =====================
  
 Basis functions confinement radius        20.000
 Width                                      2.000



 ===============================
 M O D E L   P A R A M E T E R S
 ===============================
  
 DENSITY FUNCTIONAL POTENTIAL (scf)
    Meta-GGA:                          TPSS                                    == Not Default ==
 DENSITY FUNCTIONAL ENERGY (post-scf)
    Gradient Corrections:              Becke88 Perdew86 PW91x PW91c EV93x PW...== Not Default ==

 SPIN  (restricted / unrestr.)
    Molecule:                          UNrestricted                            == Not Default ==

 OTHER ASPECTS
    Relativistic Corrections:          scalar (ZORA,APA)                       == Not Default ==

    Nuclear Charge Density Model:      Point Charge Nuclei                      



 ========================
 S. C. F.   O P T I O N S
 ========================
  

 * DIIS settings info for DIRAC   *
    Cond              0.1E+07
    CLarge          20.00
    CHuge           50.00
    DiMix            1.00
    IopPly              1
    NCyDmp              5
    IPrint              0
    Adaptable           F
    Method         diis                
    Dimix Decay fac  1.00

 * DIIS settings info for SCF     *
    Cond              0.1E+07
    CLarge          20.00
    CHuge           20.00
    DiMix            0.20
    IopPly              1
    NCyDmp              1
    IPrint              0
    Adaptable           T
    Method         DIIS                
    Dimix Decay fac  1.00
 growth factor   1.10000000000000     
 shrink factor  0.909090909100000     

    Mix            0.2000
    Degenerate          F
    Edegen          1.0E-04
    SCFRTX           9.90
    Convrg          1.0E-06
    Ncyclx            300
    Vsplit          5.0E-02
 getinp: use Shared Memory T
 blockIterator: dynamic default: T

 FunctionSetOverlapModule: use new routines     3


   size of slices for column locking    32 exact locking




                             **  R A D I A L   F U N C T I O N S  **

 TOTAL NR. OF TYPES OF ATOMS                              2




                             ---------------------
                                   T Y P E   1
                             ---------------------

 RADIAL POINTS                                         3000




 ............................ D I R A C ................................

 NUCLEAR CHARGE                                 6.0000               **>  C  <**
 (POINT NUCLEUS)
 VALENCE CHARGE                                 4.0000
 NET CHARGE                                     0.0000

 VALENCE ORBITALS INCLUDED IN THE CRYSTAL BASIS
 NR. OF (RADIAL) CORE FUNCTIONS                 1
 Radial grid       nr of points               3000
                   range                      0.10E-05     0.10E+03
  
  ** SCF-FUNCTIONAL INFO **
    ZORA
    SCALAR
  
 Self consistent error   0.54E-09


  Orbital    Q         E(a.u.)     E(eV)           <R>
 -------------------------------------------------------------------
  1S         2.00     -9.955549       -270.9043   0.273
  2S         2.00     -0.501296        -13.6410   1.583
  2P         2.00     -0.199068         -5.4169   1.794


 Sum (energy eigenvalues)                     -21.3118
 Total energy LDA                             -37.4504
              + Becke88                       -38.0213
              + Becke88+Perdew86              -37.8237
              + Perdew-Wang (91) X            -38.0063
              + Perdew-Wang (91) X+C          -37.8051
              + EV93x+PW91c                   -38.0142
              + PW86x+Perdew86c               -37.8726
              + Becke88+LYP                   -38.1972
              + Becke (alt)                   -38.0213
              + PBE                           -37.7729
              + RPBE                          -37.8350
 Kinetic energy                                37.2451
 Classical e-e repulsion                       17.6374
 e-nucl. attraction.                          -87.6009

 ......................................................................


 Sum first order eigenvalues                  -21.3034
 First order  LDA                             -37.4420
              + Becke88                       -38.0129
              + Becke88+Perdew86              -37.8153
              + Perdew-Wang (91) X            -37.9979
              + Perdew-Wang (91) X+C          -37.7967
              + EV93x+PW91c                   -38.0058
              + PW86x+Perdew86c               -37.8642
              + Becke88+LYP                   -38.1888
              + Becke (alt)                   -38.0129
              + PBE                           -37.7645
              + RPBE                          -37.8266

 ......................................................................




 SLATER TYPE ORBITAL SETS
   2   0    1.9800
   2   1    2.2000
   3   2    2.2000
 nRadialFuncs=           0
 summary of added auto gaussians
                   Type             valence
            Spher. Harm                 zlm
    Nr. of radial func.                   0
 summary of added auto kin gaussians
                   Type     valence kinetic
            Spher. Harm                 zlm
    Nr. of radial func.                   0

 NR. OF RADIAL VALENCE ORBITALS                           5
 NR. OF RADIAL CORE ORBITALS                              1
 NR. OF RADIAL FIT FUNCTIONS                              0




                             ---------------------
                                   T Y P E   2
                             ---------------------

 RADIAL POINTS                                         3000




 ............................ D I R A C ................................

 NUCLEAR CHARGE                                 1.0000               **>  H  <**
 (POINT NUCLEUS)
 VALENCE CHARGE                                 1.0000
 NET CHARGE                                     0.0000

 VALENCE ORBITALS INCLUDED IN THE CRYSTAL BASIS
 Radial grid       nr of points               3000
                   range                      0.10E-05     0.10E+03
  
  ** SCF-FUNCTIONAL INFO **
    ZORA
    SCALAR
  
 Self consistent error   0.42E-08


  Orbital    Q         E(a.u.)     E(eV)           <R>
 -------------------------------------------------------------------
  1S         1.00     -0.233474         -6.3532   1.673


 Sum (energy eigenvalues)                      -0.2335
 Total energy LDA                              -0.4457
              + Becke88                        -0.4883
              + Becke88+Perdew86               -0.4650
              + Perdew-Wang (91) X             -0.4844
              + Perdew-Wang (91) X+C           -0.4599
              + EV93x+PW91c                    -0.4820
              + PW86x+Perdew86c                -0.4663
              + Becke88+LYP                    -0.5016
              + Becke (alt)                    -0.4883
              + PBE                            -0.4586
              + RPBE                           -0.4650
 Kinetic energy                                 0.4250
 Classical e-e repulsion                        0.2828
 e-nucl. attraction.                           -0.9210

 ......................................................................


 Sum first order eigenvalues                   -0.2335
 First order  LDA                              -0.4457
              + Becke88                        -0.4883
              + Becke88+Perdew86               -0.4650
              + Perdew-Wang (91) X             -0.4844
              + Perdew-Wang (91) X+C           -0.4599
              + EV93x+PW91c                    -0.4820
              + PW86x+Perdew86c                -0.4663
              + Becke88+LYP                    -0.5016
              + Becke (alt)                    -0.4883
              + PBE                            -0.4586
              + RPBE                           -0.4650

 ......................................................................




 SLATER TYPE ORBITAL SETS
   1   0    1.2800
   2   1    1.2500
 nRadialFuncs=           0
 summary of added auto gaussians
                   Type             valence
            Spher. Harm                 zlm
    Nr. of radial func.                   0
 summary of added auto kin gaussians
                   Type     valence kinetic
            Spher. Harm                 zlm
    Nr. of radial func.                   0

 NR. OF RADIAL VALENCE ORBITALS                           3
 NR. OF RADIAL CORE ORBITALS                              0
 NR. OF RADIAL FIT FUNCTIONS                              0



 ======================================================
 R A N G E S    F O R    A T O M I C    O R B I T A L S
 ======================================================
  
   --------------------------------------------------------------------------------
                            valence            core valence kinetic    core kinetic
   --------------------------------------------------------------------------------

             Cutoff       1.000E-07       1.000E-07       1.000E-07       1.000E-07
   --------------------------------------------------------------------------------
 
   --------------------------------------------------------------------------------
               Type         valence            core valence kinetic    core kinetic
   --------------------------------------------------------------------------------
                  C           24.65            4.33           24.80            4.36
                  H           23.76            0.00           24.20            0.00
   --------------------------------------------------------------------------------
 



 ====================
 R U N    C O N F I G
 ====================
  
 
 Use Symmetry  .  .  .  .  .  .  .  .  .  .  .  .  .  .  .  .  F
 Calculate gradient of basis  .  .  .  .  .  .  .  .  .  .  .  T
 Calculate sec. der. of basis .  .  .  .  .  .  .  .  .  .  .  F
 Calculate operator T working on basis .  .  .  .  .  .  .  .  T
 Calculate dk-basis  .  .  .  .  .  .  .  .  .  .  .  .  .  .  F
 Calculate gradient of fit .  .  .  .  .  .  .  .  .  .  .  .  T
 Calculate sec. der. of fit.  .  .  .  .  .  .  .  .  .  .  .  F
 Calculate gradient of fit pot.  .  .  .  .  .  .  .  .  .  .  F
 Kin. energy via grad.  .  .  .  .  .  .  .  .  .  .  .  .  .  F
 Turnover rule for xc.  .  .  .  .  .  .  .  .  .  .  .  .  .  T
 Calculate gradient of energy .  .  .  .  .  .  .  .  .  .  .  F
 Calculate analytical strain derivatives  .  .  .  .  .  .  .  F
 Calculate kin. energy density.  .  .  .  .  .  .  .  .  .  .  T
 Calculate nuc. grad of kin. energy density  .  .  .  .  .  .  F
 Calculate der. of density .  .  .  .  .  .  .  .  .  .  .  .  T
 Calculate second der. of density.  .  .  .  .  .  .  .  .  .  F
 Calculate nuc. grad. of density .  .  .  .  .  .  .  .  .  .  F
 Calculate nuc. grad. of grad. density .  .  .  .  .  .  .  .  F
 Exact rho during SCF.  .  .  .  .  .  .  .  .  .  .  .  .  .  T
 Exact grad. rho during SCF.  .  .  .  .  .  .  .  .  .  .  .  F
 Exact grad. rho post SCF  .  .  .  .  .  .  .  .  .  .  .  .  F
 Store history of dens. matrix.  .  .  .  .  .  .  .  .  .  .  T
 Store original Bloch functions  .  .  .  .  .  .  .  .  .  .  F
 Direct fit .  .  .  .  .  .  .  .  .  .  .  .  .  .  .  .  .  F
 Direct basis  .  .  .  .  .  .  .  .  .  .  .  .  .  .  .  .  T
 STO based fitting.  .  .  .  .  .  .  .  .  .  .  .  .  .  .  F
 Zlm fitting.  .  .  .  .  .  .  .  .  .  .  .  .  .  .  .  .  T
 Calculate fragment energy in mol. grid.  .  .  .  .  .  .  .  T
 Map atoms to unit cell .  .  .  .  .  .  .  .  .  .  .  .  .  T
 Calculate DOS .  .  .  .  .  .  .  .  .  .  .  .  .  .  .  .  F
 Calculate band structure  .  .  .  .  .  .  .  .  .  .  .  .  F
 Calculate EFG .  .  .  .  .  .  .  .  .  .  .  .  .  .  .  .  F
 Calculate properties.  .  .  .  .  .  .  .  .  .  .  .  .  .  T
 Calculate kinetic energy  .  .  .  .  .  .  .  .  .  .  .  .  T
 Save file tape10 .  .  .  .  .  .  .  .  .  .  .  .  .  .  .  F
 Save file Points .  .  .  .  .  .  .  .  .  .  .  .  .  .  .  F



 ==================================================
 G E O M E T R Y    I N    X - Y - Z    F O R M A T
 ==================================================
  
 C      -3.232696626     2.660526838     0.810696023
 C      -2.831681173    -3.647509453     0.340355763
 C      -2.600579687     1.515448307     0.324507141
 C      -1.628678419     1.616983406    -0.681787910
 C      -1.259015464     2.866530442    -1.263808543
 C      -1.858079282    -3.545762664    -0.662023382
 H      -1.098598817     0.701867133    -0.971780708
 H      -2.856100364     0.531646525     0.722942753
 H      -4.007718162     2.580016989     1.574143303
 H      -3.274906943    -2.737458594     0.750076582
 H      -1.515364649    -2.542288929    -0.943321021
 VEC1     8.721139862     0.000000000     0.000000000
 VEC2     0.000000000     7.560320162     0.000000000

   Total nr. of atoms:         11





                       2 - D I M E N S I O N A L   C R Y S T A L


                             IN K-SPACE ONLY THE GAMMA POINT




   REAL SPACE LATTICE VECTORS                         LENGTH
   --------------------------                         ------
   1)  16.4805658365   0.0000000000                   16.481
   2)   0.0000000000  14.2869345229                   14.287

   ----------------------------------------
   Angles between lattice vectors
   ----------------------------------------

     pair          angle

     2 1            90.000000
 


 SMALLEST INTERATOMIC DISTANCE =      2.061440870099
 BeckeGrid: periodic partition function using cells up to order            5



 ===============================
 K - S P A C E   S A M P L I N G
 ===============================
  
 Custom Regular k-space grid.
 
   Single k-point



 =========
 C E L L S
 =========
  

   Nr. of cells for valence functions:         41



 ===========================
 L I N E A R   S C A L I N G
 ===========================
  
 Neglecting functions
              Valence  1.00E-07
                 Core  1.00E-07
                  Fit  0.00E+00
            Multipole  1.00E-08
   Screening function  3.16E-05



 =========================================
 N U M E R I C A L   I N T E G R A T I O N
 =========================================
  
 Becke grid quality: GOOD           
  
 Lebedev angular grid order:             min:  11 max:  31
 Nr. of radial points:                   min:  56 max:  56

 Total nr. of points                                 128768
 Block length                                           128
 Nr. of unique blocks                                  1006
 Total nr. of blocks                                   1006

 Percentage dummy points                               0.00%
 Nr. of k-points processed together in baspnt            30
 Nr. of symmetry operators (real space)                   1
 Symmetry operators in k-space                            2
                        EXCHANGE           CORRELATION       EXCHANGE+CORRELATION

KCIS-modified        -30.6064174004       -1.0994549808      -31.7058723812
KCIS-original        -30.2744259266       -1.0494048370      -31.3238307636
PKZB                 -30.4271201176       -1.0694839537      -31.4966040713
VS98                 -30.4962423884       -1.4406578978      -31.9369002862
LDA(VWN)             -27.1195906005       -2.4346071574      -29.5541977579
PW91                 -30.6487732235       -1.1052035715      -31.7539767950
BLYP                 -30.7581874556       -1.1219368323      -31.8801242879
BP                   -30.7581874556       -1.1323996505      -31.8905871061
PBE                  -30.5437532059       -1.0020677906      -31.5458209965
RPBE                 -30.9479860097       -1.0020677906      -31.9500538003
revPBE               -30.8546758135       -1.0020677906      -31.8567436041
OLYP                 -30.7171561225       -1.1219368323      -31.8390929548
FT97                 -31.1076841136       -1.0340327977      -32.1417169113
HCTH/93                0.0000000000        0.0000000000      -31.8248080220
HCTH/120               0.0000000000        0.0000000000      -31.8456311174
HCTH/147               0.0000000000        0.0000000000      -31.8633384139
HCTH/407               0.0000000000        0.0000000000      -31.8626653751
BOP                  -30.7581874556       -1.1324636448      -31.8906511004
PKZBx-KCIScor        -30.4271201176       -1.0494048370      -31.4765249546
VS98-x(xc)           -30.4962423884        0.0000000000      -30.4962423884
VS98-x-only          -32.9816447462        0.0000000000      -32.9816447462
TPSS                 -30.8355516699       -1.0227977480      -31.8583494179
mPBE                 -30.6632282045       -1.0020677906      -31.6652959951
OPBE                 -30.7171561225       -1.0020677906      -31.7192239131
OPerdew              -30.7171561225       -1.1323996505      -31.8495557730
mPBEKCIS             -30.6632282045       -1.0494048370      -31.7126330416
mPW                  -30.9210566201       -1.1052035715      -32.0262601916
tau-HCTH             -29.7616856710       -2.0442201700      -31.8059058410
XLYP                 -30.9712839001       -1.1219368323      -32.0932207323
KT1                  -32.5194419100       -2.4346071574      -34.9540490674
KT2                  -34.4647301438       -1.4041036821      -35.8688338259
M06-L                -30.4459919229       -1.2210421234      -31.6670340463
revTPSS              -30.7084502464       -1.0785999214      -31.7870501678
PBEsol               -29.2684882289       -1.2101482868      -30.4786365157
RGE2                 -29.5685347304       -1.1307978056      -30.6993325360
SSB-D                -32.7746258770       -1.1682900938      -33.9429159708
SOGGA                -29.2337723151       -1.0020677906      -30.2358401057
SOGGA11              -28.4863381025       -3.3673904547      -31.8537285572
MVS                  -30.3830640210       -1.0422071301      -31.4252711511
MVSx                 -30.3830640210        0.0000000000      -30.3830640210



 Total charge,    analytically                           41.000000000000
                  numerically                            40.999981212472
                  relative error                     -0.46E-06

 Valence density, analytically                           29.000000000000
                  numerically                            28.999998712982
                  relative error                     -0.44E-07



 INTEGRATED CHARGE PER ATOM:

  SET      TOTAL CHARGE      REL. ERROR      Valence CHARGE    REL. ERROR
 ------------------------------------------------------------------------
   1       5.9999967385      -0.544E-06      4.0000003070       0.768E-07
   2       5.9999972560      -0.457E-06      3.9999994426      -0.139E-06
   3       5.9999977576      -0.374E-06      3.9999997996      -0.501E-07
   4       5.9999963856      -0.602E-06      3.9999994168      -0.146E-06
   5       5.9999970800      -0.487E-06      4.0000004298       0.107E-06
   6       5.9999967556      -0.541E-06      4.0000000780       0.195E-07
   7       0.9999996217      -0.378E-06      0.9999996217      -0.378E-06
   8       1.0000005674       0.567E-06      1.0000005674       0.567E-06
   9       0.9999999022      -0.978E-07      0.9999999022      -0.978E-07
  10       1.0000003895       0.389E-06      1.0000003895       0.389E-06
  11       0.9999987585      -0.124E-05      0.9999987585      -0.124E-05

 Norms of functions from routine baspnt
 Maximum error in norms     2.792E-06 for function      100
 Minimum accuracy required  1.000E-03

 Norms of functions from routine corpnt
 Maximum error in norms     1.902E-06 for function        1
 Minimum accuracy required  1.000E-03

 Sparseness info - valence
   nr. of functions             103
   max. nr. of functions        103
   min. nr. of functions         50
   avr. nr. of functions        102
   percentage stored           99.0
 

 Sparseness info - core
   nr. of functions               6
   max. nr. of functions          6
   min. nr. of functions          0
   avr. nr. of functions          2
   percentage stored           33.3
 

 Frozen core overlap error  1.79E-04
 PrepareHam: needLdotB F

 FunctionSetTransformOption:     2
   Cut off:   1.00E-10




 ========================
 Density Fitting (zlmFit)
 ========================
  
 ZlmFit Fit Quality: GOOD           
  
 Max L-expansion:                        min:   7 max:   8
 Nr. of radial interpolation points:     min:  72 max:  72
 BeckeGrid: periodic partition function using cells up to order            5
 skipDiagonalization F parmix=  0.200000000000000      ncylx=         300
 restartSCF F
 forceRestartSolution F



                                          *******************************
                                          *  S C F   P R O C E D U R E  *
                                          *******************************
  

 Nr. of basis functions                  103
 Nr. of core functions                     6
 Nr. of fit functions                      0
 Nr. of symmetry unique K-points           1
 Valence charge                           29.00

 Settings for convergence
 --------------------------------------------------------------------------------
   Initial density:          psi
   start. from max. spin     T
 --------------------------------------------------------------------------------

 cyc=  0 err=0.00E+00 cpu=   8s ela=   8s
 cyc=  1 err=9.72E-01 meth=m nvec= 1 mix=0.2000 cpu=   8s ela=   8s fit=7.42E-03
 cyc=  2 err=7.76E-01 meth=d nvec= 2 mix=0.2000 cpu=   8s ela=   8s fit=4.70E-03
 cyc=  3 err=8.68E-02 meth=d nvec= 3 mix=0.2000 cpu=   8s ela=   9s fit=5.09E-03
 cyc=  4 err=5.13E-02 meth=d nvec= 4 mix=0.2000 cpu=   8s ela=   8s fit=5.28E-03
 cyc=  5 err=1.57E-02 meth=d nvec= 4 mix=0.2200 cpu=   8s ela=   8s fit=5.26E-03
 cyc=  6 err=8.70E-03 meth=d nvec= 5 mix=0.2200 cpu=   8s ela=   8s fit=5.27E-03
 cyc=  7 err=4.68E-03 meth=d nvec= 6 mix=0.2200 cpu=   8s ela=   8s fit=5.26E-03
 cyc=  8 err=2.47E-03 meth=d nvec= 6 mix=0.2420 cpu=   8s ela=   8s fit=5.26E-03
 cyc=  9 err=1.55E-03 meth=d nvec= 7 mix=0.2420 cpu=   8s ela=   8s fit=5.26E-03
 cyc= 10 err=6.68E-04 meth=d nvec= 7 mix=0.2662 cpu=   8s ela=   8s fit=5.26E-03
 cyc= 11 err=4.92E-04 meth=d nvec= 8 mix=0.2662 cpu=   8s ela=   8s fit=5.26E-03
 cyc= 12 err=3.00E-04 meth=d nvec= 8 mix=0.2928 cpu=   8s ela=   9s fit=5.26E-03
 cyc= 13 err=1.13E-04 meth=d nvec= 8 mix=0.3221 cpu=   8s ela=   9s fit=5.26E-03
 cyc= 14 err=6.88E-05 meth=d nvec= 8 mix=0.3543 cpu=   8s ela=   9s fit=5.26E-03
 cyc= 15 err=1.72E-05 meth=d nvec= 8 mix=0.3897 cpu=   8s ela=   8s fit=5.26E-03
 cyc= 16 err=9.03E-06 meth=d nvec= 8 mix=0.4287 cpu=   8s ela=   9s fit=5.26E-03
 cyc= 17 err=3.85E-06 meth=d nvec= 8 mix=0.4716 cpu=   8s ela=   8s fit=5.26E-03
 cyc= 18 err=1.70E-06 meth=d nvec= 7 mix=0.5187 cpu=   8s ela=   9s fit=5.26E-03

 CONVERGENCE REACHED
 cyc= 19 err=5.64E-07 meth=d nvec= 7 mix=0.5706 cpu=   8s ela=   9s fit=5.26E-03


         -------------------- CYCLE   20 --------------------
 Self consistent error (density)                       5.64E-07



                                             *************************
                                             *  P R O P E R T I E S  *
                                             *************************
  



 ===================================
 B A N D   E N E R G Y   R A N G E S
 ===================================
  
 The energies below are in Hartree.
 ========================================================================================
       band      min(up)      max(up)    occup(up)      min(dn)      max(dn)    occup(dn)
 ========================================================================================
          1     -0.81849     -0.81849      1.00000     -0.81346     -0.81346      1.00000
          2     -0.71785     -0.71785      1.00000     -0.71547     -0.71547      1.00000
          3     -0.71331     -0.71331      1.00000     -0.70361     -0.70361      1.00000
          4     -0.57762     -0.57762      1.00000     -0.57521     -0.57521      1.00000
          5     -0.57528     -0.57528      1.00000     -0.56509     -0.56509      1.00000
          6     -0.49427     -0.49427      1.00000     -0.48962     -0.48962      1.00000
          7     -0.43760     -0.43760      1.00000     -0.43212     -0.43212      1.00000
          8     -0.42942     -0.42942      1.00000     -0.42370     -0.42370      1.00000
          9     -0.40393     -0.40393      1.00000     -0.40199     -0.40199      1.00000
         10     -0.37630     -0.37630      1.00000     -0.36613     -0.36613      1.00000
         11     -0.35196     -0.35196      1.00000     -0.34883     -0.34883      1.00000
         12     -0.33117     -0.33117      1.00000     -0.32713     -0.32713      1.00000
         13     -0.25938     -0.25938      1.00000     -0.25276     -0.25276      1.00000
         14     -0.25392     -0.25392      1.00000     -0.24660     -0.24660      1.00000
         15     -0.25246     -0.25246      1.00000     -0.14942     -0.14942      0.00000
         16     -0.06683     -0.06683      0.00000     -0.05828     -0.05828      0.00000
         17     -0.05788     -0.05788      0.00000     -0.05324     -0.05324      0.00000
         18      0.00833      0.00833      0.00000      0.01011      0.01011      0.00000
         19      0.07210      0.07210      0.00000      0.07444      0.07444      0.00000
         20      0.08487      0.08487      0.00000      0.09305      0.09305      0.00000
         21      0.11485      0.11485      0.00000      0.11571      0.11571      0.00000
         22      0.14765      0.14765      0.00000      0.15085      0.15085      0.00000
         23      0.16903      0.16903      0.00000      0.17113      0.17113      0.00000
         24      0.20959      0.20959      0.00000      0.21846      0.21846      0.00000
         25      0.26900      0.26900      0.00000      0.27649      0.27649      0.00000
         26      0.27744      0.27744      0.00000      0.28445      0.28445      0.00000
         27      0.28857      0.28857      0.00000      0.30017      0.30017      0.00000
         28      0.32737      0.32737      0.00000      0.33752      0.33752      0.00000
         29      0.36366      0.36366      0.00000      0.36794      0.36794      0.00000
         30      0.39758      0.39758      0.00000      0.39869      0.39869      0.00000
         31      0.42316      0.42316      0.00000      0.43301      0.43301      0.00000
         32      0.45320      0.45320      0.00000      0.46005      0.46005      0.00000
         33      0.46968      0.46968      0.00000      0.47422      0.47422      0.00000
         34      0.47405      0.47405      0.00000      0.48066      0.48066      0.00000
         35      0.47722      0.47722      0.00000      0.48085      0.48085      0.00000
         36      0.47879      0.47879      0.00000      0.48577      0.48577      0.00000
         37      0.50122      0.50122      0.00000      0.50484      0.50484      0.00000
         38      0.51345      0.51345      0.00000      0.51770      0.51770      0.00000
         39      0.52417      0.52417      0.00000      0.53977      0.53977      0.00000
         40      0.52983      0.52983      0.00000      0.56364      0.56364      0.00000
         41      0.59979      0.59979      0.00000      0.60083      0.60083      0.00000
         42      0.61921      0.61921      0.00000      0.62349      0.62349      0.00000
         43      0.63824      0.63824      0.00000      0.66203      0.66203      0.00000
         44      0.69354      0.69354      0.00000      0.70953      0.70953      0.00000
         45      0.77864      0.77864      0.00000      0.77916      0.77916      0.00000
         46      0.77886      0.77886      0.00000      0.78722      0.78722      0.00000
         47      0.81304      0.81304      0.00000      0.81654      0.81654      0.00000
 ========================================================================================

----------------------------------------
Band gap information
----------------------------------------
Number of valence electrons                    29
Valence band index                             14
Valence band spin index                         2
Conduction band index                          15
Conduction band spin index                      2
Top of valence band (a.u.)                 -0.247
Bottom of conduction band (a.u.)           -0.149
Band gap (a.u.)                             0.097
Band gap (eV)                               2.645
Band gap (kcal/mol)                        60.984
 



 ===================================
 B A N D   E N E R G Y   R A N G E S
 ===================================
  
 The energies below are in Hartree.
 ========================================================================================
       band      min(up)      max(up)    occup(up)      min(dn)      max(dn)    occup(dn)
 ========================================================================================
          1     -0.81849     -0.81849      1.00000     -0.81346     -0.81346      1.00000
          2     -0.71785     -0.71785      1.00000     -0.71547     -0.71547      1.00000
          3     -0.71331     -0.71331      1.00000     -0.70361     -0.70361      1.00000
          4     -0.57762     -0.57762      1.00000     -0.57521     -0.57521      1.00000
          5     -0.57528     -0.57528      1.00000     -0.56509     -0.56509      1.00000
          6     -0.49427     -0.49427      1.00000     -0.48962     -0.48962      1.00000
          7     -0.43760     -0.43760      1.00000     -0.43212     -0.43212      1.00000
          8     -0.42942     -0.42942      1.00000     -0.42370     -0.42370      1.00000
          9     -0.40393     -0.40393      1.00000     -0.40199     -0.40199      1.00000
         10     -0.37630     -0.37630      1.00000     -0.36613     -0.36613      1.00000
         11     -0.35196     -0.35196      1.00000     -0.34883     -0.34883      1.00000
         12     -0.33117     -0.33117      1.00000     -0.32713     -0.32713      1.00000
         13     -0.25938     -0.25938      1.00000     -0.25276     -0.25276      1.00000
         14     -0.25392     -0.25392      1.00000     -0.24660     -0.24660      1.00000
         15     -0.25246     -0.25246      1.00000     -0.14942     -0.14942      0.00000
         16     -0.06683     -0.06683      0.00000     -0.05828     -0.05828      0.00000
         17     -0.05788     -0.05788      0.00000     -0.05324     -0.05324      0.00000
         18      0.00833      0.00833      0.00000      0.01011      0.01011      0.00000
         19      0.07210      0.07210      0.00000      0.07444      0.07444      0.00000
         20      0.08487      0.08487      0.00000      0.09305      0.09305      0.00000
         21      0.11485      0.11485      0.00000      0.11571      0.11571      0.00000
         22      0.14765      0.14765      0.00000      0.15085      0.15085      0.00000
         23      0.16903      0.16903      0.00000      0.17113      0.17113      0.00000
         24      0.20959      0.20959      0.00000      0.21846      0.21846      0.00000
         25      0.26900      0.26900      0.00000      0.27649      0.27649      0.00000
         26      0.27744      0.27744      0.00000      0.28445      0.28445      0.00000
         27      0.28857      0.28857      0.00000      0.30017      0.30017      0.00000
         28      0.32737      0.32737      0.00000      0.33752      0.33752      0.00000
         29      0.36366      0.36366      0.00000      0.36794      0.36794      0.00000
         30      0.39758      0.39758      0.00000      0.39869      0.39869      0.00000
         31      0.42316      0.42316      0.00000      0.43301      0.43301      0.00000
         32      0.45320      0.45320      0.00000      0.46005      0.46005      0.00000
         33      0.46968      0.46968      0.00000      0.47422      0.47422      0.00000
         34      0.47405      0.47405      0.00000      0.48066      0.48066      0.00000
         35      0.47722      0.47722      0.00000      0.48085      0.48085      0.00000
         36      0.47879      0.47879      0.00000      0.48577      0.48577      0.00000
         37      0.50122      0.50122      0.00000      0.50484      0.50484      0.00000
         38      0.51345      0.51345      0.00000      0.51770      0.51770      0.00000
         39      0.52417      0.52417      0.00000      0.53977      0.53977      0.00000
         40      0.52983      0.52983      0.00000      0.56364      0.56364      0.00000
         41      0.59979      0.59979      0.00000      0.60083      0.60083      0.00000
         42      0.61921      0.61921      0.00000      0.62349      0.62349      0.00000
         43      0.63824      0.63824      0.00000      0.66203      0.66203      0.00000
         44      0.69354      0.69354      0.00000      0.70953      0.70953      0.00000
 ========================================================================================



 =============================
 E N E R G Y   A N A L Y S I S
 =============================
  
 Formation energy w.r.t. spherically-symmetric spin-restricted atoms

                                                             (a.u.)            (eV)     (kCal/mol)
 --------------------------------------------------------------------------------------------------

 Kinetic                                                       2.55868458      69.6253     1605.60
 XC                                                           -2.33014261     -63.4064    -1462.19
 Electrostatic                                                -1.99452546     -54.2738    -1251.58
 V(atomic)*def                                                -1.00849945     -27.4427     -632.84
 V(def)*def                                                    0.23260826       6.3296      145.96
 Dispersion                                                   -0.01368719      -0.3724       -8.59
 --------------------------------------------------------------------------------------------------




 =======================================
 M E T A    G G A    F U N T I O N A L S
 =======================================
  
                        a.u.           e.v.       kcal/mol

KCIS-modified         -2.3690227883      -64.4643900406    -1486.5844003113
KCIS-original         -2.4166986269      -65.7617156167    -1516.5014438486
PKZB                  -2.4174180794      -65.7812929149    -1516.9529071466
VS98                  -2.5270740777      -68.7651844522    -1585.7630922543
LDA(VWN)              -2.6895298004      -73.1858295901    -1687.7056080720
PW91                  -2.5401027007      -69.1197113210    -1593.9386774475
BLYP                  -2.4048469589      -65.4392153233    -1509.0644091539
BP                    -2.4966193103      -67.9364680655    -1566.6524351626
PBE                   -2.5279744761      -68.7896855372    -1586.3281007932
RPBE                  -2.4454511268      -66.5441109488    -1534.5439118663
revPBE                -2.4556607685      -66.8219294347    -1540.9505594272
OLYP                  -2.4358527104      -66.2829247487    -1528.5208139914
FT97                  -2.4043856674      -65.4266629427    -1508.7749443327
HCTH/93               -2.4472201103      -66.5922474387    -1535.6539658821
HCTH/120              -2.4824507757      -67.5509226204    -1557.7615444869
HCTH/147              -2.4800473794      -67.4855228796    -1556.2533903822
HCTH/407              -2.4633677671      -67.0316475380    -1545.7867745953
BOP                   -2.3769699552      -64.6806434554    -1491.5713233657
PKZBx-KCIScor         -2.3913044747      -65.0707055761    -1500.5663710729
VS98-x(xc)            -2.2668545695      -61.6842513515    -1422.4728682962
VS98-x-only           -2.3446091547      -63.8000612693    -1471.2646123228
TPSS                  -2.5555618819      -69.5403770451    -1603.6394611322
mPBE                  -2.5059042273      -68.1891235112    -1572.4788091349
OPBE                  -2.5267971452      -68.7576487344    -1585.5893144447
OPerdew               -2.5276250618      -68.7801774909    -1586.1088400000
mPBEKCIS              -2.4581296696      -66.8891116522    -1542.4998184297
mPW                   -2.5064630829      -68.2043307465    -1572.8294963702
tau-HCTH              -2.5046204717      -68.1541907457    -1571.6732402880
XLYP                  -2.3972792199      -65.2332866651    -1504.3155806833
KT1                   -2.5651898096      -69.8023662888    -1609.6810776350
KT2                   -2.6556031315      -72.2626379555    -1666.4162996393
M06-L                 -2.6510691193      -72.1392612087    -1663.5711637888
revTPSS               -2.5625249395      -69.7298514846    -1608.0088462423
PBEsol                -2.6021145111      -70.8071385387    -1632.8516800653
RGE2                  -2.5386420914      -69.0799661213    -1593.0221312141
SSB-D                 -2.5804340216      -70.2171824033    -1619.2469660958
SOGGA                 -2.6195412041      -71.2813429831    -1643.7870961789
SOGGA11               -2.5577847384      -69.6008640487    -1605.0343248065
MVS                   -2.7645547838      -75.2273632626    -1734.7845009046
MVSx                  -2.4527114738      -66.7416750423    -1539.0998488608
 Final bond energy (TPSS)                                     -2.55556188     -69.5404    -1603.64
 
 Fit error correction used (Vdef*err)                         -0.00002184      -0.0006       -0.01

 ==================================================================================================



 ==========================
 D I P O L E    M O M E N T
 ==========================
  
   ==================================================
    direction       dipole (a.u.)      dipole (Debye)
   ==================================================
            z            0.335120            0.851790
   ==================================================



 Form Factors not computed: only 1 k-point.
   min. nr. of func/process                     6
   noper                                        1
   nfunc                                      109
   nprocsThisNode                              16
   nfuncThisProcess                             7
   safeMaxFuncSliceSize                         7
   requestedMaxFuncSliceSize                  128
   actual maxFuncSliceSize                      7
   numSlices                                    1
   storeCoopPerBasPair                          F
   nEnergies                                    1
       Nr. of bands used for DOS:     41
   nband_dosplot                               41
   bandSliceSize                               21
   num band slices                              2



 =======================================
 M U L L I K E N   P O P U L A T I O N S
 =======================================
  

 BASISFUNCTION         Q
 --------------------------------
 1/C/NO/2s                   0.666   0.669
 1/C/NO/2p_y                 0.198   0.202
 1/C/NO/2p_z                 0.365   0.386
 1/C/NO/2p_x                 0.359   0.379
 1/C/STO1.98/2s              0.010   0.010
 1/C/STO2.2/2p_y             0.203   0.203
 1/C/STO2.2/2p_z             0.101   0.100
 1/C/STO2.2/2p_x             0.106   0.104
 1/C/STO2.2/3d_xy            0.008   0.008
 1/C/STO2.2/3d_yz            0.007   0.007
 1/C/STO2.2/3d_z2            0.004   0.004
 1/C/STO2.2/3d_xz            0.006   0.005
 1/C/STO2.2/3d_x2-y2         0.009   0.009
                    -------------
 Charge on atom              2.042   2.087
 
 2/C/NO/2s                   0.674   0.667
 2/C/NO/2p_y                 0.283   0.282
 2/C/NO/2p_z                 0.331   0.306
 2/C/NO/2p_x                 0.346   0.322
 2/C/STO1.98/2s              0.010   0.010
 2/C/STO2.2/2p_y             0.171   0.171
 2/C/STO2.2/2p_z             0.124   0.125
 2/C/STO2.2/2p_x             0.117   0.117
 2/C/STO2.2/3d_xy            0.008   0.008
 2/C/STO2.2/3d_yz            0.008   0.008
 2/C/STO2.2/3d_z2            0.006   0.006
 2/C/STO2.2/3d_xz            0.005   0.005
 2/C/STO2.2/3d_x2-y2         0.007   0.007
                    -------------
 Charge on atom              2.091   2.033
 
 3/C/NO/2s                   0.674   0.667
 3/C/NO/2p_y                 0.303   0.302
 3/C/NO/2p_z                 0.330   0.305
 3/C/NO/2p_x                 0.330   0.305
 3/C/STO1.98/2s              0.010   0.009
 3/C/STO2.2/2p_y             0.164   0.163
 3/C/STO2.2/2p_z             0.125   0.125
 3/C/STO2.2/2p_x             0.124   0.124
 3/C/STO2.2/3d_xy            0.007   0.007
 3/C/STO2.2/3d_yz            0.008   0.008
 3/C/STO2.2/3d_z2            0.006   0.006
 3/C/STO2.2/3d_xz            0.005   0.005
 3/C/STO2.2/3d_x2-y2         0.008   0.008
                    -------------
 Charge on atom              2.092   2.034
 
 4/C/NO/2s                   0.661   0.668
 4/C/NO/2p_y                 0.284   0.306
 4/C/NO/2p_z                 0.311   0.353
 4/C/NO/2p_x                 0.331   0.372
 4/C/STO1.98/2s              0.015   0.012
 4/C/STO2.2/2p_y             0.169   0.153
 4/C/STO2.2/2p_z             0.125   0.109
 4/C/STO2.2/2p_x             0.117   0.107
 4/C/STO2.2/3d_xy            0.010   0.008
 4/C/STO2.2/3d_yz            0.008   0.007
 4/C/STO2.2/3d_z2            0.007   0.006
 4/C/STO2.2/3d_xz            0.005   0.003
 4/C/STO2.2/3d_x2-y2         0.007   0.004
                    -------------
 Charge on atom              2.051   2.108
 
 5/C/NO/2s                   0.799   0.596
 5/C/NO/2p_y                 0.244   0.212
 5/C/NO/2p_z                 0.609   0.232
 5/C/NO/2p_x                 0.602   0.202
 5/C/STO1.98/2s              0.013   0.017
 5/C/STO2.2/2p_y             0.187   0.192
 5/C/STO2.2/2p_z             0.043   0.040
 5/C/STO2.2/2p_x             0.041   0.040
 5/C/STO2.2/3d_xy            0.007   0.008
 5/C/STO2.2/3d_yz            0.007   0.008
 5/C/STO2.2/3d_z2            0.004   0.006
 5/C/STO2.2/3d_xz            0.002   0.003
 5/C/STO2.2/3d_x2-y2         0.007   0.007
                    -------------
 Charge on atom              2.566   1.562
 
 6/C/NO/2s                   0.662   0.668
 6/C/NO/2p_y                 0.306   0.324
 6/C/NO/2p_z                 0.309   0.351
 6/C/NO/2p_x                 0.313   0.358
 6/C/STO1.98/2s              0.015   0.011
 6/C/STO2.2/2p_y             0.160   0.149
 6/C/STO2.2/2p_z             0.126   0.109
 6/C/STO2.2/2p_x             0.124   0.110
 6/C/STO2.2/3d_xy            0.008   0.007
 6/C/STO2.2/3d_yz            0.007   0.007
 6/C/STO2.2/3d_z2            0.007   0.006
 6/C/STO2.2/3d_xz            0.006   0.004
 6/C/STO2.2/3d_x2-y2         0.009   0.005
                    -------------
 Charge on atom              2.053   2.109
 
 7/H/NO/1s                  -0.054  -0.056
 7/H/STO1.28/1s              0.453   0.443
 7/H/STO1.25/2p_y            0.002   0.002
 7/H/STO1.25/2p_z            0.006   0.006
 7/H/STO1.25/2p_x            0.005   0.006
                    -------------
 Charge on atom              0.412   0.400
 
 8/H/NO/1s                  -0.028  -0.027
 8/H/STO1.28/1s              0.438   0.432
 8/H/STO1.25/2p_y            0.002   0.002
 8/H/STO1.25/2p_z            0.007   0.007
 8/H/STO1.25/2p_x            0.007   0.007
                    -------------
 Charge on atom              0.426   0.420
 
 9/H/NO/1s                  -0.013  -0.021
 9/H/STO1.28/1s              0.427   0.430
 9/H/STO1.25/2p_y            0.005   0.005
 9/H/STO1.25/2p_z            0.005   0.006
 9/H/STO1.25/2p_x            0.005   0.006
                    -------------
 Charge on atom              0.430   0.425
 
 10/H/NO/1s                 -0.024  -0.023
 10/H/STO1.28/1s             0.436   0.430
 10/H/STO1.25/2p_y           0.002   0.002
 10/H/STO1.25/2p_z           0.007   0.006
 10/H/STO1.25/2p_x           0.007   0.007
                    -------------
 Charge on atom              0.428   0.422
 
 11/H/NO/1s                 -0.057  -0.059
 11/H/STO1.28/1s             0.454   0.445
 11/H/STO1.25/2p_y           0.001   0.001
 11/H/STO1.25/2p_z           0.006   0.006
 11/H/STO1.25/2p_x           0.006   0.006
                    -------------
 Charge on atom              0.410   0.399
 
 Total charge               15.000  14.000


 ATOM/ATOM OVERLAP MATRIX
 (OFF-DIAGONAL ELEMENTS HALF OF OVERLAP POPULATION)
 (order of atoms as on input)

              ** SPIN 1
 ATOM         CORE    1       2       3       4       5       6       7       8       9
           -------------------------------------------------------------------------------
   0)
      1 :  0.0121
   1)
      1 : -0.0018  1.5150
   2)
      1 : -0.0019  0.2600  1.5820
   3)
      1 : -0.0019  0.2619 -0.0554  1.5824
   4)
      1 : -0.0022 -0.0610 -0.0249  0.2537  1.5232
   5)
      1 : -0.0029 -0.0207 -0.0620 -0.0612  0.2516  2.2775
   6)
      1 : -0.0022 -0.0607  0.2545 -0.0244 -0.0640  0.2530  1.5235
   7)
      1 :  0.0002  0.0033 -0.0015 -0.0345  0.2007 -0.0362  0.0039  0.2827
   8)
      1 :  0.0001 -0.0322  0.0053  0.2024 -0.0329  0.0042 -0.0016 -0.0070  0.2935
   9)
      1 :  0.0003  0.2070 -0.0352 -0.0347  0.0047 -0.0056  0.0045  0.0003 -0.0070  0.3016
  10)
      1 :  0.0001 -0.0321  0.2050  0.0054 -0.0018  0.0037 -0.0324  0.0011 -0.0007 -0.0064
     11 :  0.2930
  11)
      1 :  0.0002  0.0035 -0.0354 -0.0014  0.0040 -0.0358  0.1988 -0.0011  0.0017  0.0002
     11 : -0.0069  0.2824

              ** SPIN 2
 ATOM         CORE    1       2       3       4       5       6       7       8       9
           -------------------------------------------------------------------------------
   0)
      1 :  0.0113
   1)
      1 : -0.0019  1.5662
   2)
      1 : -0.0021  0.2602  1.4966
   3)
      1 : -0.0021  0.2621 -0.0603  1.4965
   4)
      1 : -0.0021 -0.0658 -0.0244  0.2549  1.5690
   5)
      1 : -0.0021 -0.0180 -0.0400 -0.0393  0.2781  1.1591
   6)
      1 : -0.0021 -0.0655  0.2558 -0.0238 -0.0654  0.2789  1.5690
   7)
      1 :  0.0002  0.0034 -0.0009 -0.0295  0.1915 -0.0296  0.0037  0.2696
   8)
      1 :  0.0002 -0.0321  0.0054  0.2029 -0.0338  0.0026 -0.0017 -0.0077  0.2894
   9)
      1 :  0.0002  0.2068 -0.0320 -0.0316  0.0040 -0.0009  0.0038  0.0004 -0.0055  0.2845
  10)
      1 :  0.0002 -0.0320  0.2052  0.0054 -0.0019  0.0024 -0.0334  0.0010 -0.0011 -0.0051
     11 :  0.2892
  11)
      1 :  0.0002  0.0037 -0.0303 -0.0007  0.0037 -0.0289  0.1895 -0.0017  0.0016  0.0004
     11 : -0.0076  0.2689



 ======================
 Atomic Charge Analysis
 ======================
  
 Deformation charges with respect to neutral atoms.
 
   ----------------------------------------------------------
     Atom      Hirshfeld     Voronoi         CM5    Mulliken
   ----------------------------------------------------------
      1  C        -0.045      -0.049      -0.100      -0.129
      2  C        -0.043      -0.045      -0.098      -0.124
      3  C        -0.043      -0.046      -0.098      -0.127
      4  C        -0.055      -0.048      -0.106      -0.159
      5  C         0.003      -0.020      -0.004      -0.128
      6  C        -0.055      -0.050      -0.106      -0.162
      7  H         0.045       0.047       0.099       0.188
      8  H         0.050       0.055       0.105       0.154
      9  H         0.049       0.052       0.104       0.145
     10  H         0.050       0.054       0.105       0.150
     11  H         0.044       0.049       0.098       0.191
   ----------------------------------------------------------
      Total:       0.000      -0.000       0.000      -0.000
   ----------------------------------------------------------
 



 ============================================
 Atomic Charge Analysis (Spin Up - Spin Down)
 ============================================
  
   ----------------------------------------------------------
     Atom      Hirshfeld     Voronoi         CM5    Mulliken
   ----------------------------------------------------------
      1  C         0.023       0.032       0.023       0.045
      2  C        -0.039      -0.044      -0.039      -0.058
      3  C        -0.039      -0.044      -0.039      -0.058
      4  C        -0.043      -0.001      -0.043       0.056
      5  C        -0.820      -0.898      -0.820      -1.003
      6  C        -0.043      -0.001      -0.043       0.056
      7  H        -0.012      -0.012      -0.012      -0.011
      8  H        -0.008      -0.011      -0.008      -0.006
      9  H        -0.000       0.001      -0.000      -0.004
     10  H        -0.008      -0.011      -0.008      -0.006
     11  H        -0.012      -0.011      -0.012      -0.011
   ----------------------------------------------------------
      Total:      -1.000      -1.000      -1.000      -1.000
   ----------------------------------------------------------
 
 WARNING: matrix written, but never read. Matrix name: S(C/C)**-1


    =====================
     CALCULATION RESULTS
    =====================

Energy (hartree)            -2.55556188



 =================
 Timing Statistics
 =================
  
 Total Used :                     CPU=      199.32      System=        7.46     Elapsed=      226.71

 Calls  Section                     ( Mean, Percentage )
 ---------------------------------------------------------------------------------------------------
     3  ><      ................      0.55    0.83             0.20    8.21             0.84    1.12
     1  GETINP  ................      0.29    0.15             0.24    3.16            16.29    7.19
    21  EIGSYS  ................      9.40   99.03             0.31   88.62             9.90   91.70

AMS application finished. Exiting.
 NORMAL TERMINATION
     Total cpu time:     202.28
  Total system time:       7.92
 Total elapsed time:     230.35
