
                                 *****************
                                 * O   R   C   A *
                                 *****************

           --- An Ab Initio, DFT and Semiempirical electronic structure package ---

                  #######################################################
                  #                        -***-                        #
                  #  Department of molecular theory and spectroscopy    #
                  #              Directorship: Frank Neese              #
                  # Max Planck Institute for Chemical Energy Conversion #
                  #                  D-45470 Muelheim/Ruhr              #
                  #                       Germany                       #
                  #                                                     #
                  #                  All rights reserved                #
                  #                        -***-                        #
                  #######################################################


                         Program Version 3.0.3 - RELEASE   -


 With contributions from (in alphabetic order):
   Ute Becker             : Parallelization
   Dmytro Bykov           : SCF Hessian
   Dmitry Ganyushin       : Spin-Orbit,Spin-Spin,Magnetic field MRCI
   Andreas Hansen         : Spin unrestricted coupled pair/coupled cluster methods
   Dimitrios Liakos       : Extrapolation schemes; parallel MDCI
   Robert Izsak           : Overlap fitted RIJCOSX, COSX-SCS-MP3
   Christian Kollmar      : KDIIS, OOCD, Brueckner-CCSD(T), CCSD density
   Simone Kossmann        : Meta GGA functionals, TD-DFT gradient, OOMP2, MP2 Hessian
   Taras Petrenko         : DFT Hessian,TD-DFT gradient, ASA and ECA modules, normal mode analysis, Resonance Raman, ABS, FL, XAS/XES, NRVS
   Christoph Reimann      : Effective Core Potentials
   Michael Roemelt        : Restricted open shell CIS
   Christoph Riplinger    : Improved optimizer, TS searches, QM/MM, DLPNO-CCSD
   Barbara Sandhoefer     : DKH picture change effects
   Igor Schapiro          : Molecular dynamics
   Kantharuban Sivalingam : CASSCF convergence, NEVPT2
   Boris Wezisla          : Elementary symmetry handling
   Frank Wennmohs         : Technical directorship


 We gratefully acknowledge several colleagues who have allowed us to
 interface, adapt or use parts of their codes:
   Stefan Grimme, W. Hujo, H. Kruse, T. Risthaus : VdW corrections, initial TS optimization,
                                                   DFT functionals, gCP
   Ed Valeev                                     : LibInt (2-el integral package), F12 methods
   Garnet Chan, S. Sharma, R. Olivares           : DMRG
   Ulf Ekstrom                                   : XCFun DFT Library
   Mihaly Kallay                                 : mrcc  (arbitrary order and MRCC methods)
   Andreas Klamt, Michael Diedenhofen            : otool_cosmo (COSMO solvation model)
   Frank Weinhold                                : gennbo (NPA and NBO analysis)
   Christopher J. Cramer and Donald G. Truhlar   : smd solvation model


 Your calculation uses the libint2 library for the computation of 2-el integrals
 For citations please refer to: http://libint.valeyev.net

 This ORCA versions uses:
   CBLAS   interface :  Fast vector & matrix operations
   LAPACKE interface :  Fast linear algebra routines


Your calculation utilizes the basis: Ahlrichs-VDZ
Cite in your paper:
H - Kr: A. Schaefer, H. Horn and R. Ahlrichs, J. Chem. Phys. 97, 2571 (1992).

Your calculation utilizes the basis: Ahlrichs SVPalls1+f
Cite in your paper:
Rb - Xe: A. Schaefer, C. Huber and R. Ahlrichs, J. Chem. Phys. 100, 5829 (1994).

Your calculation utilizes pol. fcns from basis: Ahlrichs polarization
Cite in your paper:
H - Kr: R. Ahlrichs and coworkers, unpublished

================================================================================
                                        WARNINGS
                       Please study these warnings very carefully!
================================================================================

WARNING: The RI method has been chosen with no auxiliary basis (AUX or GTOAUX in BASIS block)
Your calculation utilizes aux bases from the TurboMole library
Cite in your paper:
The Ahlrichs auxiliary basis sets were obtained from the TurboMole
basis set library under ftp.chemie.uni-karlsruhe.de/pub/jbasen
H - Ba; Hf - At:
      1) K. Eichkorn, O. Treutler, H. Ohm, M. Haser and R. Ahlrichs,
         Chem. Phys. Letters 240, 283 (1995).
      2) K. Eichkorn, F. Weigend, O. Treutler, R. Ahlrichs,
         Theor. Chem. Acc. 97, 119 (1997)
Rb-I : uncontracted bases constructed by FN 'by inspection' (01/2002)


        Standard SV/J expansion basis used (GTOAUX=VDZ_J)

Now building the actual basis set

WARNING: your system is open-shell and RHF/RKS was chosen
  ===> : WILL SWITCH to UHF/UKS


WARNING: Direct SCF is incompatible with ReadInts=true
  ===> : ReadInts is disabled


INFO   : the flag for use of LIBINT has been found!

================================================================================
                                       INPUT FILE
================================================================================
NAME = orca.inp
|  1> # -----------------------------------------------------
|  2> #! UKS LSD SVP grid5 NoFinalGrid TightSCF KeepInts
|  3> # -----------------------------------------------------
|  4> #%eprnmr gtensor 1 end
|  5> #* int 0 2
|  6> #B 0 0 0 0 0 0
|  7> #O 1 0 0 1.2049 0 0
|  8> #*
|  9> # *************************************************
| 10> # ****** This starts the input for the next job *
| 11> # *************************************************
| 12> #$new_job
| 13> # --------------------------------------------------
| 14> ! LDA SVP SmallPrint ReadInts NoKeepInts
| 15> # --------------------------------------------------
| 16> %eprnmr gtensor 1 end
| 17> * int 0 2
| 18> B 0 0 0 0 0 0
| 19> O 1 0 0 1.2049 0 0
| 20> *
| 21> 
| 22>                          ****END OF INPUT****
================================================================================

                       ****************************
                       * Single Point Calculation *
                       ****************************

---------------------------------
CARTESIAN COORDINATES (ANGSTROEM)
---------------------------------
  B      0.000000    0.000000    0.000000
  O      1.204900    0.000000    0.000000

----------------------------
CARTESIAN COORDINATES (A.U.)
----------------------------
  NO LB      ZA    FRAG    MASS        X           Y           Z
   0 B     5.0000    0    10.810          0.000000000000000          0.000000000000000          0.000000000000000
   1 O     8.0000    0    15.999          2.276931018761716          0.000000000000000          0.000000000000000

--------------------------------
INTERNAL COORDINATES (ANGSTROEM)
--------------------------------
 B      0   0   0   0.000000     0.000     0.000
 O      1   0   0   1.204900     0.000     0.000

---------------------------
INTERNAL COORDINATES (A.U.)
---------------------------
 B      0   0   0   0.000000     0.000     0.000
 O      1   0   0   2.276931     0.000     0.000

---------------------
BASIS SET INFORMATION
---------------------
There are 2 groups of distinct atoms

 Group   1 Type B   : 7s4p1d contracted to 3s2p1d pattern {511/31/1}
 Group   2 Type O   : 7s4p1d contracted to 3s2p1d pattern {511/31/1}

Atom   0B    basis set group =>   1
Atom   1O    basis set group =>   2
-------------------------------
AUXILIARY BASIS SET INFORMATION
-------------------------------
There are 2 groups of distinct atoms

 Group   1 Type B   : 8s3p3d1f contracted to 6s3p3d1f pattern {311111/111/111/1}
 Group   2 Type O   : 8s3p3d1f contracted to 6s3p3d1f pattern {311111/111/111/1}

Atom   0B    basis set group =>   1
Atom   1O    basis set group =>   2
------------------------------------------------------------------------------
                           ORCA GTO INTEGRAL CALCULATION
                           -- RI-GTO INTEGRALS CHOSEN --
------------------------------------------------------------------------------

                         BASIS SET STATISTICS AND STARTUP INFO

Gaussian basis set:
 # of primitive gaussian shells          ...   24
 # of primitive gaussian functions       ...   48
 # of contracted shells                  ...   12
 # of contracted basis functions         ...   28
 Highest angular momentum                ...    2
 Maximum contraction depth               ...    5
Auxiliary gaussian basis set:
 # of primitive gaussian shells          ...   30
 # of primitive gaussian functions       ...   78
 # of contracted shells                  ...   26
 # of contracted aux-basis functions     ...   74
 Highest angular momentum                ...    3
 Maximum contraction depth               ...    3
Ratio of auxiliary to basis functions    ...  2.64
Integral package used                  ... LIBINT
 One Electron integrals                  ... done
 Ordering auxiliary basis shells         ... done
 Integral threshhold             Thresh  ...  1.000e-10
 Primitive cut-off               TCut    ...  1.000e-11
 Pre-screening matrix                    ... done
 Shell pair data                         ... 
 Ordering of the shell pairs             ... done (   0.000 sec) 78 of 78 pairs
 Determination of significant pairs      ... done (   0.000 sec)
 Creation of shell pair data             ... done (   0.000 sec)
 Storage of shell pair data              ... done (   0.002 sec)
 Shell pair data done in (   0.002 sec)
 Computing two index integrals           ... done
 Cholesky decomposition of the V-matrix  ... done


Timings:
 Total evaluation time                   ...   0.127 sec (  0.002 min)
 One electron matrix time                ...   0.007 sec (  0.000 min) =  5.5%
 Schwartz matrix evaluation time         ...   0.077 sec (  0.001 min) = 60.9%
 Two index repulsion integral time       ...   0.003 sec (  0.000 min) =  2.0%
 Cholesky decomposition of V             ...   0.005 sec (  0.000 min) =  4.0%
 Three index repulsion integral time     ...   0.000 sec (  0.000 min) =  0.0%

-------------------------------------------------------------------------------
                                 ORCA SCF
-------------------------------------------------------------------------------

------------
SCF SETTINGS
------------
Hamiltonian:
 Density Functional     Method          .... DFT(GTOs)
 Exchange Functional    Exchange        .... Slater
   X-Alpha parameter    XAlpha          ....  0.666667
 Correlation Functional Correlation     .... VWN-5
 Gradients option       PostSCFGGA      .... off
 RI-approximation to the Coulomb term is turned on
   Number of auxiliary basis functions  .... 74


General Settings:
 Integral files         IntName         .... orca
 Hartree-Fock type      HFTyp           .... UHF
 Total Charge           Charge          ....    0
 Multiplicity           Mult            ....    2
 Number of Electrons    NEL             ....   13
 Basis Dimension        Dim             ....   28
 Nuclear Repulsion      ENuc            ....     17.5675062926 Eh

Convergence Acceleration:
 DIIS                   CNVDIIS         .... on
   Start iteration      DIISMaxIt       ....    12
   Startup error        DIISStart       ....  0.200000
   # of expansion vecs  DIISMaxEq       ....     5
   Bias factor          DIISBfac        ....   1.050
   Max. coefficient     DIISMaxC        ....  10.000
 Newton-Raphson         CNVNR           .... off
 SOSCF                  CNVSOSCF        .... off
 Level Shifting         CNVShift        .... on
   Level shift para.    LevelShift      ....    0.2500
   Turn off err/grad.   ShiftErr        ....    0.0010
 Zerner damping         CNVZerner       .... off
 Static damping         CNVDamp         .... on
   Fraction old density DampFac         ....    0.7000
   Max. Damping (<1)    DampMax         ....    0.9800
   Min. Damping (>=0)   DampMin         ....    0.0000
   Turn off err/grad.   DampErr         ....    0.1000
 Fernandez-Rico         CNVRico         .... off

SCF Procedure:
 Maximum # iterations   MaxIter         ....   125
 SCF integral mode      SCFMode         .... Direct
   Integral package                     .... LIBINT
 Reset frequeny         DirectResetFreq ....    20
 Integral Threshold     Thresh          ....  1.000e-10 Eh
 Primitive CutOff       TCut            ....  1.000e-11 Eh

Convergence Tolerance:
 Convergence Check Mode ConvCheckMode   .... Total+1el-Energy
 Energy Change          TolE            ....  1.000e-06 Eh
 1-El. energy change                    ....  1.000e-03 Eh
 DIIS Error             TolErr          ....  1.000e-06


Diagonalization of the overlap matrix:
Smallest eigenvalue                        ... 2.330e-02
Time for diagonalization                   ...    0.002 sec
Threshold for overlap eigenvalues          ... 1.000e-08
Number of eigenvalues below threshold      ... 0
Time for construction of square roots      ...    0.026 sec
Total time needed                          ...    0.029 sec

-------------------
DFT GRID GENERATION
-------------------

General Integration Accuracy     IntAcc      ...  4.340
Radial Grid Type                 RadialGrid  ... Gauss-Chebyshev
Angular Grid (max. acc.)         AngularGrid ... Lebedev-110
Angular grid pruning method      GridPruning ... 3 (G Style)
Weight generation scheme         WeightScheme... Becke
Basis function cutoff            BFCut       ...    1.0000e-10
Integration weight cutoff        WCut        ...    1.0000e-14
Grids for H and He will be reduced by one unit

# of grid points (after initial pruning)     ...   3394 (   0.0 sec)
# of grid points (after weights+screening)   ...   3366 (   0.0 sec)
nearest neighbour list constructed           ...    0.0 sec
Grid point re-assignment to atoms done       ...    0.0 sec
Grid point division into batches done        ...    0.0 sec
Reduced shell lists constructed in    0.0 sec

Total number of grid points                  ...     3366
Total number of batches                      ...       54
Average number of points per batch           ...       62
Average number of grid points per atom       ...     1683
Average number of shells per batch           ...    10.09 (84.09%)
Average number of basis functions per batch  ...    23.95 (85.52%)
Average number of large shells per batch     ...     9.60 (95.14%)
Average number of large basis fcns per batch ...    23.05 (96.28%)
Maximum spatial batch extension              ...  21.42, 30.26, 37.06 au
Average spatial batch extension              ...   6.44,  7.92,  7.98 au

Time for grid setup =    0.023 sec

------------------------------
INITIAL GUESS: MODEL POTENTIAL
------------------------------
Loading Hartree-Fock densities                     ... done
Calculating cut-offs                               ... done
Setting up the integral package                    ... done
Initializing the effective Hamiltonian             ... done
Starting the Coulomb interaction                   ... done (   0.0 sec)
Reading the grid                                   ... done
Mapping shells                                     ... done
Starting the XC term evaluation                    ... done (   0.0 sec)
  promolecular density results
     # of electrons  =     13.000164051
     EX              =    -10.688942293
     EC              =     -0.860162762
     EX+EC           =    -11.549105055
Transforming the Hamiltonian                       ... done (   0.0 sec)
Diagonalizing the Hamiltonian                      ... done (   0.0 sec)
Back transforming the eigenvectors                 ... done (   0.0 sec)
Now organizing SCF variables                       ... done
                      ------------------
                      INITIAL GUESS DONE (   0.2 sec)
                      ------------------
--------------
SCF ITERATIONS
--------------
ITER       Energy         Delta-E        Max-DP      RMS-DP      [F,P]     Damp
               ***  Starting incremental Fock matrix formation  ***
  0    -98.9897918117   0.000000000000 0.07172498  0.00628255  0.3369280 0.7000
  1    -99.0687952299  -0.079003418210 0.02845618  0.00227513  0.0447280 0.7000
                               ***Turning on DIIS***
  2    -99.0754633814  -0.006668151484 0.05222083  0.00392692  0.0836953 0.0000
  3    -99.1279746453  -0.052511263825 0.01935913  0.00173161  0.0531623 0.0000
  4    -99.1315691072  -0.003594461976 0.01081667  0.00061075  0.0260375 0.0000
  5    -99.1322518111  -0.000682703878 0.00335838  0.00023659  0.0095306 0.0000
  6    -99.1323697824  -0.000117971294 0.00132806  0.00012546  0.0031648 0.0000
  7    -99.1323964866  -0.000026704226 0.00094078  0.00007296  0.0011601 0.0000
  8    -99.1324048500  -0.000008363321 0.00126834  0.00010153  0.0006229 0.0000
  9    -99.1324095272  -0.000004677229 0.00018555  0.00001160  0.0002750 0.0000
                 **** Energy Check signals convergence ****

               *****************************************************
               *                     SUCCESS                       *
               *           SCF CONVERGED AFTER  10 CYCLES          *
               *****************************************************

Setting up the final grid:

General Integration Accuracy     IntAcc      ...  4.670
Radial Grid Type                 RadialGrid  ... Gauss-Chebyshev
Angular Grid (max. acc.)         AngularGrid ... Lebedev-302
Angular grid pruning method      GridPruning ... 3 (G Style)
Weight generation scheme         WeightScheme... Becke
Basis function cutoff            BFCut       ...    1.0000e-10
Integration weight cutoff        WCut        ...    1.0000e-14
Grids for H and He will be reduced by one unit

# of grid points (after initial pruning)     ...  12340 (   0.0 sec)
# of grid points (after weights+screening)   ...  12309 (   0.0 sec)
nearest neighbour list constructed           ...    0.0 sec
Grid point re-assignment to atoms done       ...    0.0 sec
Grid point division into batches done        ...    0.1 sec
Reduced shell lists constructed in    0.1 sec

Total number of grid points                  ...    12309
Total number of batches                      ...      193
Average number of points per batch           ...       63
Average number of grid points per atom       ...     6154
Average number of shells per batch           ...     9.26 (77.15%)
Average number of basis functions per batch  ...    22.25 (79.46%)
Average number of large shells per batch     ...     8.58 (92.65%)
Average number of large basis fcns per batch ...    20.67 (92.91%)
Maximum spatial batch extension              ...  22.74, 28.80, 28.80 au
Average spatial batch extension              ...   4.41,  4.99,  4.91 au

Final grid set up in    0.1 sec
Final integration                            ... done (   0.0 sec)
Change in XC energy                          ...     0.000048089
Integrated number of electrons               ...    13.000002464
Previous integrated no of electrons          ...    12.999804088

----------------
TOTAL SCF ENERGY
----------------

Total Energy       :          -99.13236156 Eh           -2697.52870 eV

Components:
Nuclear Repulsion  :           17.56750629 Eh             478.03615 eV
Electronic Energy  :         -116.69986785 Eh           -3175.56485 eV

One Electron Energy:         -170.89886559 Eh           -4650.39455 eV
Two Electron Energy:           54.19899774 Eh            1474.82971 eV

Virial components:
Potential Energy   :         -198.11637936 Eh           -5391.02076 eV
Kinetic Energy     :           98.98401780 Eh            2693.49206 eV
Virial Ratio       :            2.00149866


DFT components:
N(Alpha)           :        7.000001462729 electrons
N(Beta)            :        6.000001001641 electrons
N(Total)           :       13.000002464370 electrons
E(X)               :      -10.884404131726 Eh       
E(C)               :       -0.859362085150 Eh       
E(XC)              :      -11.743766216876 Eh       

---------------
SCF CONVERGENCE
---------------

  Last Energy change         ...   -1.2346e-07  Tolerance :   1.0000e-06
  Last MAX-Density change    ...    4.4423e-05  Tolerance :   1.0000e-05
  Last RMS-Density change    ...    2.9407e-06  Tolerance :   1.0000e-06
  Last DIIS Error            ...    8.8718e-05  Tolerance :   1.0000e-06

             **** THE GBW FILE WAS UPDATED (orca.gbw) ****
             **** DENSITY FILE WAS UPDATED (orca.scfp.tmp) ****
             **** ENERGY FILE WAS UPDATED (orca.en.tmp) ****
----------------------
UHF SPIN CONTAMINATION
----------------------

Warning: in a DFT calculation there is little theoretical justification to 
         calculate <S**2> as in Hartree-Fock theory. We will do it anyways
         but you should keep in mind that the values have only limited relevance

Expectation value of <S**2>     :     0.758610
Ideal value S*(S+1) for S=0.5   :     0.750000
Deviation                       :     0.008610

----------------
ORBITAL ENERGIES
----------------
                 SPIN UP ORBITALS
  NO   OCC          E(Eh)            E(eV) 
   0   1.0000     -18.628106      -506.8965 
   1   1.0000      -6.515780      -177.3034 
   2   1.0000      -0.896813       -24.4035 
   3   1.0000      -0.387973       -10.5573 
   4   1.0000      -0.341438        -9.2910 
   5   1.0000      -0.341438        -9.2910 
   6   1.0000      -0.297683        -8.1004 
   7   0.0000      -0.049921        -1.3584 
   8   0.0000      -0.049921        -1.3584 
   9   0.0000       0.107876         2.9355 
  10   0.0000       0.176450         4.8015 
  11   0.0000       0.242887         6.6093 
  12   0.0000       0.242887         6.6093 
  13   0.0000       0.578445        15.7403 
  14   0.0000       0.808286        21.9946 
  15   0.0000       0.925358        25.1803 
  16   0.0000       0.925358        25.1803 
  17   0.0000       0.934713        25.4348 
  18   0.0000       0.934792        25.4370 
  19   0.0000       1.077446        29.3188 
  20   0.0000       1.077446        29.3188 
  21   0.0000       1.141787        31.0696 
  22   0.0000       1.684937        45.8495 
  23   0.0000       2.562258        69.7226 
  24   0.0000       2.563578        69.7585 
  25   0.0000       2.950643        80.2911 
  26   0.0000       2.950643        80.2911 
  27   0.0000       3.341259        90.9203 

                 SPIN DOWN ORBITALS
  NO   OCC          E(Eh)            E(eV) 
   0   1.0000     -18.629071      -506.9228 
   1   1.0000      -6.498813      -176.8417 
   2   1.0000      -0.895102       -24.3570 
   3   1.0000      -0.380513       -10.3543 
   4   1.0000      -0.336258        -9.1501 
   5   1.0000      -0.336258        -9.1501 
   6   0.0000      -0.210354        -5.7240 
   7   0.0000      -0.013512        -0.3677 
   8   0.0000      -0.013512        -0.3677 
   9   0.0000       0.124481         3.3873 
  10   0.0000       0.226787         6.1712 
  11   0.0000       0.270957         7.3731 
  12   0.0000       0.270957         7.3731 
  13   0.0000       0.627695        17.0804 
  14   0.0000       0.814917        22.1750 
  15   0.0000       0.924521        25.1575 
  16   0.0000       0.924521        25.1575 
  17   0.0000       0.983758        26.7694 
  18   0.0000       0.983827        26.7713 
  19   0.0000       1.140524        31.0352 
  20   0.0000       1.140524        31.0352 
  21   0.0000       1.145811        31.1791 
  22   0.0000       1.738050        47.2948 
  23   0.0000       2.557765        69.6003 
  24   0.0000       2.559064        69.6357 
  25   0.0000       2.959310        80.5269 
  26   0.0000       2.959310        80.5269 
  27   0.0000       3.349819        91.1532 

                    ********************************
                    * MULLIKEN POPULATION ANALYSIS *
                    ********************************

--------------------------------------------
MULLIKEN ATOMIC CHARGES AND SPIN POPULATIONS
--------------------------------------------
   0 B :   -0.011430    1.072695
   1 O :    0.011430   -0.072695
Sum of atomic charges         :    0.0000000
Sum of atomic spin populations:    1.0000000

-----------------------------------------------------
MULLIKEN REDUCED ORBITAL CHARGES AND SPIN POPULATIONS
-----------------------------------------------------
CHARGE
  0 B s       :     3.141868  s :     3.141868
      pz      :     0.516806  p :     1.781714
      px      :     0.748102
      py      :     0.516806
      dz2     :     0.007551  d :     0.087848
      dxz     :     0.028822
      dyz     :     0.000000
      dx2y2   :     0.022654
      dxy     :     0.028822
  1 O s       :     3.686229  s :     3.686229
      pz      :     1.450488  p :     4.288929
      px      :     1.387954
      py      :     1.450488
      dz2     :     0.001411  d :     0.013411
      dxz     :     0.003885
      dyz     :     0.000000
      dx2y2   :     0.004232
      dxy     :     0.003885

SPIN
  0 B s       :     0.586362  s :     0.586362
      pz      :     0.059785  p :     0.496169
      px      :     0.376600
      py      :     0.059785
      dz2     :    -0.000022  d :    -0.009836
      dxz     :    -0.004874
      dyz     :    -0.000000
      dx2y2   :    -0.000066
      dxy     :    -0.004874
  1 O s       :     0.004874  s :     0.004874
      pz      :    -0.055151  p :    -0.078352
      px      :     0.031950
      py      :    -0.055151
      dz2     :     0.000076  d :     0.000783
      dxz     :     0.000240
      dyz     :     0.000000
      dx2y2   :     0.000227
      dxy     :     0.000240


                     *******************************
                     * LOEWDIN POPULATION ANALYSIS *
                     *******************************

-------------------------------------------
LOEWDIN ATOMIC CHARGES AND SPIN POPULATIONS
-------------------------------------------
   0 B :   -0.043784    1.043528
   1 O :    0.043784   -0.043528

----------------------------------------------------
LOEWDIN REDUCED ORBITAL CHARGES AND SPIN POPULATIONS
----------------------------------------------------
CHARGE
  0 B s       :     2.975550  s :     2.975550
      pz      :     0.530687  p :     1.875519
      px      :     0.814144
      py      :     0.530687
      dz2     :     0.019763  d :     0.192715
      dxz     :     0.056831
      dyz     :     0.000000
      dx2y2   :     0.059290
      dxy     :     0.056831
  1 O s       :     3.500417  s :     3.500417
      pz      :     1.408572  p :     4.434801
      px      :     1.617657
      py      :     1.408572
      dz2     :     0.003295  d :     0.020998
      dxz     :     0.003910
      dyz     :     0.000000
      dx2y2   :     0.009884
      dxy     :     0.003910

SPIN
  0 B s       :     0.557668  s :     0.557668
      pz      :     0.055283  p :     0.498437
      px      :     0.387872
      py      :     0.055283
      dz2     :     0.000142  d :    -0.012577
      dxz     :    -0.006572
      dyz     :    -0.000000
      dx2y2   :     0.000426
      dxy     :    -0.006572
  1 O s       :     0.009386  s :     0.009386
      pz      :    -0.049137  p :    -0.054364
      px      :     0.043910
      py      :    -0.049137
      dz2     :     0.000149  d :     0.001450
      dxz     :     0.000426
      dyz     :     0.000000
      dx2y2   :     0.000448
      dxy     :     0.000426


                      *****************************
                      * MAYER POPULATION ANALYSIS *
                      *****************************

  NA   - Mulliken gross atomic population
  ZA   - Total nuclear charge
  QA   - Mulliken gross atomic charge
  VA   - Mayer's total valence
  BVA  - Mayer's bonded valence
  FA   - Mayer's free valence

  ATOM       NA         ZA         QA         VA         BVA        FA
  0 B      5.0114     5.0000    -0.0114     3.5800     2.6621     0.9179
  1 O      7.9886     8.0000     0.0114     2.6708     2.6621     0.0087

  Mayer bond orders larger than 0.1
B(  0-B ,  1-O ) :   2.6621 

-------
TIMINGS
-------

Total SCF time: 0 days 0 hours 0 min 2 sec 

Total time                  ....       2.077 sec
Sum of individual times     ....       2.204 sec  (106.2%)

Fock matrix formation       ....       1.849 sec  ( 89.0%)
  Coulomb formation         ....       1.388 sec  ( 75.1% of F)
  Split-RI-J                ....       1.222 sec  ( 66.1% of F)
  XC integration            ....       0.373 sec  ( 20.2% of F)
    Basis function eval.    ....       0.031 sec  (  8.4% of XC)
    Density eval.           ....       0.032 sec  (  8.5% of XC)
    XC-Functional eval.     ....       0.060 sec  ( 16.0% of XC)
    XC-Potential eval.      ....       0.034 sec  (  9.0% of XC)
Diagonalization             ....       0.015 sec  (  0.7%)
Density matrix formation    ....       0.000 sec  (  0.0%)
Population analysis         ....       0.009 sec  (  0.4%)
Initial guess               ....       0.173 sec  (  8.3%)
Orbital Transformation      ....       0.000 sec  (  0.0%)
Orbital Orthonormalization  ....       0.000 sec  (  0.0%)
DIIS solution               ....       0.005 sec  (  0.2%)
Grid generation             ....       0.153 sec  (  7.4%)

-------------------------   --------------------
FINAL SINGLE POINT ENERGY       -99.132361561630
-------------------------   --------------------

   --->>> g-tensor requested, so NeedSOC=true

                            ***************************************
                            *     ORCA property calculations      *
                            ***************************************

                                    ---------------------
                                    Active property flags
                                    ---------------------
   (+) Dipole Moment
   (+) g-tensor
   (+) Spin-Orbit Integrals are needed


------------------------------------------------------------------------------
                       ORCA ELECTRIC PROPERTIES CALCULATION
------------------------------------------------------------------------------

Dipole Moment Calculation                       ... on
Quadrupole Moment Calculation                   ... off
Polarizability Calculation                      ... off
GBWName                                         ... orca.gbw
Electron density file                           ... orca.scfp.tmp

-------------
DIPOLE MOMENT
-------------
                                X             Y             Z
Electronic contribution:     -1.27983       0.00000      -0.00000
Nuclear contribution   :      0.55078       0.00000       0.00000
                        -----------------------------------------
Total Dipole Moment    :     -0.72905       0.00000      -0.00000
                        -----------------------------------------
Magnitude (a.u.)       :      0.72905
Magnitude (Debye)      :      1.85310

------------------------------------------------------------------------------
                         ORCA SPIN-ORBIT COUPLING CALCULATION
------------------------------------------------------------------------------

GBW file                                    ... orca.gbw
Input density                               ... orca.scfp.tmp
Output integrals                            ... orca
Operator type                               ... Mean-field/Effective potential
   One-Electron Terms                       ... 1
   Coulomb Contribution                     ... 2
   Exchange Contribution                    ... 3
   Correlation Contribution                 ... 0
   Maximum number of centers                ... 4
Setting up the integration grid             ... done
Evaluating density on the grid              ... (NumEl=   12.999804) done
Evaluating Coulomb term semi-analytically   ... done
One-Center Exchange (+SOO)                  ... done
Evaluating the spin-orbit operator          ... done
Total time for SOC:  0.582
------------------------------------------------------------------------------
                                ORCA EPR/NMR CALCULATION
------------------------------------------------------------------------------

GBWName                      ... orca.gbw
Electron density file        ... orca.scfp.tmp
Spin density file            ... orca.scfr.tmp
Spin-orbit integrals         ... orca
Origin for angular momentum  ... Center of electronic charge
Coordinates of the origin    ...    1.45726920   -0.00000000    0.00000000 (bohrs)
Details of the CP(SCF) procedure:
       Solver   = POPLE   
       MaxIter  =    64   
       Tolerance=    1.000e-06
       Op-0     =   0-  6 =>   7- 27
       Op-1     =   0-  5 =>   6- 27
Multiplicity                 ... 2
g-tensor                     ... 1
Using LibInt in CPSCF-CP

Calculating angular momentum integrals      ... done
Forming RHS of the CP-SCF equations         ... done


Forming final perturbed densities           ... done

Magnetic field perturbation calculated in  0.120 sec
 Tensor is right-handed.


-------------------
ELECTRONIC G-MATRIX
-------------------

 The g-matrix: 
              2.0022532    0.0000000    0.0000000
              0.0000000    2.0006766    0.0000000
             -0.0000000    0.0000000    2.0006766

 gel          2.0023193    2.0023193    2.0023193
 gRMC        -0.0000961   -0.0000961   -0.0000961
 gDSO(tot)    0.0000769    0.0000769    0.0000300
 gPSO(tot)   -0.0016235   -0.0016235   -0.0000000
             ----------   ----------   ----------
 g(tot)       2.0006766    2.0006766    2.0022532 iso=  2.0012021
 Delta-g     -0.0016427   -0.0016427   -0.0000661 iso= -0.0011171
 Orientation: 
  X           0.0000000   -0.0000000   -1.0000000
  Y          -0.1258816    0.9920453   -0.0000000
  Z           0.9920453    0.1258816    0.0000000

Notes:  (1) The principal values are square roots of the eigenvalues of gT*g
        (2) Orientations are eigenvectors of gT*g
        (3) Individual contributions are projections of the full matrices onto the eigenvectors of gT*g


Timings for individual modules:

Sum of individual times         ...        3.285 sec (=   0.055 min)
GTO integral calculation        ...        0.154 sec (=   0.003 min)   4.7 %
Spin-Orbit-Coupling Matrices    ...        0.581 sec (=   0.010 min)  17.7 %
SCF iterations                  ...        2.301 sec (=   0.038 min)  70.0 %
SCF-level EPR/NMR calculation   ...        0.250 sec (=   0.004 min)   7.6 %
                             ****ORCA TERMINATED NORMALLY****
TOTAL RUN TIME: 0 days 0 hours 0 minutes 3 seconds 462 msec


------------------------------------------------------
Statistics for LoadLeveler job ll1-ib0.2984863.0:

number of nodes: 1
number of MPI tasks: 8
number of OpenMP threads per task: 1

memory consumption (high water mark): 0.14 GB

average CPU usage: 7.9 %

