  ABINIT 
  
  Give name for formatted input file: 
Fe.in
  Give name for formatted output file:
Fe.out
  Give root name for generic input files:
Fe_i
  Give root name for generic output files:
Fe_o
  Give root name for generic temporary files:
Fe_1

.Version 7.8.2 of ABINIT 
.(sequential version, prepared for a x86_64_linux_gnu4.9 computer) 

.Copyright (C) 1998-2014 ABINIT group . 
 ABINIT comes with ABSOLUTELY NO WARRANTY.
 It is free software, and you are welcome to redistribute it
 under certain conditions (GNU General Public License,
 see ~abinit/COPYING or http://www.gnu.org/copyleft/gpl.txt).

 ABINIT is a project of the Universite Catholique de Louvain,
 Corning Inc. and other collaborators, see ~abinit/doc/developers/contributors.txt .
 Please read ~abinit/doc/users/acknowledgments.html for suggested
 acknowledgments of the ABINIT effort.
 For more information, see http://www.abinit.org .

.Starting date : Tue 28 Jun 2016.
- ( at 16h47 )
  

 ++++++++++++++++++++++++++++++++++++++++++++++++++++++++++++++++++++++++++++++

 === Build Information === 
  Version       : 7.8.2
  Build target  : x86_64_linux_gnu4.9
  Build date    : 20140909

 === Compiler Suite === 
  C compiler       : gnu4.9
  C++ compiler     : gnu4.9
  Fortran compiler : gnu4.9
  CFLAGS           : -g -O2 -fstack-protector-strong -Wformat -Werror=format-security
  CXXFLAGS         : -g -O2 -fstack-protector-strong -Wformat -Werror=format-security
  FCFLAGS          : -g -O2 -fstack-protector-strong
  FC_LDFLAGS       : 

 === Optimizations === 
  Debug level        : basic
  Optimization level : standard
  Architecture       : intel_core2

 === Multicore === 
  Parallel build : no
  Parallel I/O   : no
  openMP support : no
  GPU support    : no

 === Connectors / Fallbacks === 
  Connectors on : yes
  Fallbacks on  : yes
  DFT flavor    : none
  FFT flavor    : none
  LINALG flavor : netlib
  MATH flavor   : none
  TIMER flavor  : abinit
  TRIO flavor   : none

 === Experimental features === 
  Bindings            : @enable_bindings@
  Exports             : no
  GW double-precision : no

 ++++++++++++++++++++++++++++++++++++++++++++++++++++++++++++++++++++++++++++++


 ++++++++++++++++++++++++++++++++++++++++++++++++++++++++++++++++++++++++++++++
 Default optimizations:
   --- None ---


 ++++++++++++++++++++++++++++++++++++++++++++++++++++++++++++++++++++++++++++++


 ++++++++++++++++++++++++++++++++++++++++++++++++++++++++++++++++++++++++++++++
 CPP options activated during the build:

                    CC_GNU                   CXX_GNU                    FC_GNU
 
 HAVE_FC_ALLOCATABLE_DT...             HAVE_FC_ASYNC         HAVE_FC_BACKTRACE
 
  HAVE_FC_COMMAND_ARGUMENT      HAVE_FC_COMMAND_LINE        HAVE_FC_CONTIGUOUS
 
           HAVE_FC_CPUTIME              HAVE_FC_EXIT             HAVE_FC_FLUSH
 
             HAVE_FC_GAMMA            HAVE_FC_GETENV          HAVE_FC_INT_QUAD
 
             HAVE_FC_IOMSG     HAVE_FC_ISO_C_BINDING           HAVE_FC_PRIVATE
 
         HAVE_FC_PROTECTED         HAVE_FC_STREAM_IO            HAVE_FC_SYSTEM
 
          HAVE_FORTRAN2003        HAVE_LIBPAW_ABINIT               HAVE_LINALG
 
        HAVE_LINALG_SERIAL             HAVE_OS_LINUX                HAVE_TIMER
 
         HAVE_TIMER_ABINIT         HAVE_TIMER_SERIAL              USE_MACROAVE
 
 ++++++++++++++++++++++++++++++++++++++++++++++++++++++++++++++++++++++++++++++

- input  file    -> Fe.in
- output file    -> Fe.out
- root for input  files -> Fe_i
- root for output files -> Fe_o

-instrng :    28 lines of input have been read from file Fe.in


 iofn2 : Please give name of formatted atomic psp file
 iofn2 : for atom type   1 , psp file is ./26fe.pspnc
  read the values zionpsp=  8.0 , pspcod=   1 , lmax=   2

 inpspheads: deduce mpsang  =   3, n1xccc  =2501.

 invars1m : enter jdtset=1
 invars1 : treat image number     1

 symlatt : the Bravais lattice is cI (body-centered cubic)
  xred   is defined in input file
 ingeo : takes atomic coordinates from input array xred

 symlatt : the Bravais lattice is cI (body-centered cubic)

 symlatt : the Bravais lattice is cI (body-centered cubic)
 symspgr : spgroup= 229  Im -3 m   (=Oh^9)
       Simple Lattice Grid

 invars1m : enter jdtset=2
 invars1 : treat image number     1

 symlatt : the Bravais lattice is cI (body-centered cubic)
  xred   is defined in input file
 ingeo : takes atomic coordinates from input array xred

 symlatt : the Bravais lattice is cI (body-centered cubic)

 symlatt : the Bravais lattice is cI (body-centered cubic)
 symspgr : spgroup= 229  Im -3 m   (=Oh^9)
       Simple Lattice Grid
       Simple Lattice Grid
  dtset%nelect=   8.0000000000000000     
 chkneu : initialized the occupation numbers for occopt=    3
    spin-unpolarized case :
  2.00  2.00  2.00  2.00  0.00  0.00  0.00  0.00
       Simple Lattice Grid
  dtset%nelect=   8.0000000000000000     
 chkneu : initialized the occupation numbers for occopt=    3
    spin up   values :
  1.00  1.00  1.00  1.00  0.00  0.00  0.00  0.00
    spin down values :
  1.00  1.00  1.00  1.00  0.00  0.00  0.00  0.00
mpi_setup: mkmem  undefined in the input file.Use default mkmem  = nkpt
 mpi_setup: With nkpt_me=6 and mkmem  = 6, ground state wf handled in core.
mpi_setup: mkqmem undefined in the input file.Use default mkqmem = nkpt
 mpi_setup: With nkpt_me=6 and mkqmem = 6, ground state wf handled in core.
mpi_setup: mk1mem undefined in the input file.Use default mk1mem = nkpt
 mpi_setup: With nkpt_me=6 and mk1mem = 6, ground state wf handled in core.

--- !COMMENT
message: |
    The second and third dimension of the FFT grid: 0, 0
    were imposed to be multiple of the number of processors for the FFT: 1
src_file: Subroutine Unknown
src_line: 0
...

 For input ecut=  1.800000E+01 best grid ngfft=      18      18      18
       max ecut=  1.814241E+01

 ==== FFT mesh ====
  FFT mesh divisions ........................    18   18   18
  Augmented FFT divisions ...................    19   19   18
  FFT algorithm .............................   112
  FFT cache size ............................    16
 getmpw: optimal value of mpw=     301
mpi_setup: mkmem  undefined in the input file.Use default mkmem  = nkpt
 mpi_setup: With nkpt_me=6 and mkmem  = 6, ground state wf handled in core.
mpi_setup: mkqmem undefined in the input file.Use default mkqmem = nkpt
 mpi_setup: With nkpt_me=6 and mkqmem = 6, ground state wf handled in core.
mpi_setup: mk1mem undefined in the input file.Use default mk1mem = nkpt
 mpi_setup: With nkpt_me=6 and mk1mem = 6, ground state wf handled in core.
 For input ecut=  1.800000E+01 best grid ngfft=      18      18      18
       max ecut=  1.814241E+01

 ==== FFT mesh ====
  FFT mesh divisions ........................    18   18   18
  Augmented FFT divisions ...................    19   19   18
  FFT algorithm .............................   112
  FFT cache size ............................    16
 getmpw: optimal value of mpw=     301

 DATASET    1 : space group Im -3 m (#229); Bravais cI (body-center cubic)

 getdim_nloc : deduce lmnmax  =   8, lnmax  =   2,
                      lmnmaxso=   8, lnmaxso=   2.
memory : analysis of memory needs
================================================================================
 Values of the parameters that define the memory need for DATASET  1.
   intxc =         0  ionmov =         0    iscf =         5 xclevel =         1
  lmnmax =         2   lnmax =         2   mband =         8  mffmem =         1
P  mgfft =        18   mkmem =         6 mpssoang=         3     mpw =       301
  mqgrid =      3001   natom =         1    nfft =      5832    nkpt =         6
  nloalg =         4  nspden =         1 nspinor =         1  nsppol =         1
    nsym =        48  n1xccc =      2501  ntypat =         1  occopt =         3
================================================================================
P This job should need less than                       2.967 Mbytes of memory.
  Rough estimation (10% accuracy) of disk space for files :
_ WF disk file :      0.222 Mbytes ; DEN or POT disk file :      0.046 Mbytes.
================================================================================

 Biggest array : f_fftgr(disk), with      0.4469 MBytes.
 memana : allocated an array of      0.447 Mbytes, for testing purposes.
 memana : allocated       2.967 Mbytes, for testing purposes. 
 The job will continue.

 DATASET    2 : space group Im -3 m (#229); Bravais cI (body-center cubic)

 getdim_nloc : deduce lmnmax  =   8, lnmax  =   2,
                      lmnmaxso=   8, lnmaxso=   2.
memory : analysis of memory needs
================================================================================
 Values of the parameters that define the memory need for DATASET  2.
   intxc =         0  ionmov =         0    iscf =         5 xclevel =         1
  lmnmax =         2   lnmax =         2   mband =         8  mffmem =         1
P  mgfft =        18   mkmem =         6 mpssoang=         3     mpw =       301
  mqgrid =      3001   natom =         1    nfft =      5832    nkpt =         6
  nloalg =         4  nspden =         2 nspinor =         1  nsppol =         2
    nsym =        48  n1xccc =      2501  ntypat =         1  occopt =         3
================================================================================
P This job should need less than                       3.817 Mbytes of memory.
  Rough estimation (10% accuracy) of disk space for files :
_ WF disk file :      0.443 Mbytes ; DEN or POT disk file :      0.091 Mbytes.
================================================================================

 Biggest array : f_fftgr(disk), with      0.8919 MBytes.
 memana : allocated an array of      0.892 Mbytes, for testing purposes.
 memana : allocated       3.817 Mbytes, for testing purposes. 
 The job will continue.
--------------------------------------------------------------------------------
------------- Echo of variables that govern the present computation ------------
--------------------------------------------------------------------------------
-
- outvars: echo of selected default values                                      
-   accesswff0 =  0 , fftalg0 =112 , wfoptalg0 =  0
-
- outvars: echo of global parameters not present in the input file              
-  max_nthreads =    0
-
 -outvars: echo values of preprocessed input variables --------
            acell      5.4200000000E+00  5.4200000000E+00  5.4200000000E+00 Bohr
              amu      5.58470000E+01
        bs_loband1          0
        bs_loband2          0       0
             ecut      1.80000000E+01 Hartree
-          fftalg         112
             iscf           5
           jdtset        1    2
              kpt      1.25000000E-01  1.25000000E-01  1.25000000E-01
                       3.75000000E-01  1.25000000E-01  1.25000000E-01
                      -1.25000000E-01  1.25000000E-01  1.25000000E-01
                      -3.75000000E-01  3.75000000E-01  1.25000000E-01
                      -3.75000000E-01 -3.75000000E-01  1.25000000E-01
                      -3.75000000E-01  3.75000000E-01  3.75000000E-01
         kptrlatt        4    0    0      0    4    0      0    0    4
          kptrlen      1.87754308E+01
P           mkmem           6
            natom           1
            nband1          8
            nband2          8
           ndtset           2
            ngfft          18      18      18
             nkpt           6
           nspden1          1
           nspden2          2
           nsppol1          1
           nsppol2          2
            nstep          50
             nsym          48
           ntypat           1
              occ1     2.000000  2.000000  2.000000  2.000000  0.000000  0.000000
                       0.000000  0.000000
                       2.000000  2.000000  2.000000  2.000000  0.000000  0.000000
                       0.000000  0.000000
                       2.000000  2.000000  2.000000  2.000000  0.000000  0.000000
                       0.000000  0.000000
                       2.000000  2.000000  2.000000  2.000000  0.000000  0.000000
                       0.000000  0.000000
                       2.000000  2.000000  2.000000  2.000000  0.000000  0.000000
                       0.000000  0.000000
                       2.000000  2.000000  2.000000  2.000000  0.000000  0.000000
                       0.000000  0.000000
              occ2     1.000000  1.000000  1.000000  1.000000  0.000000  0.000000
                       0.000000  0.000000
                       1.000000  1.000000  1.000000  1.000000  0.000000  0.000000
                       0.000000  0.000000
                       1.000000  1.000000  1.000000  1.000000  0.000000  0.000000
                       0.000000  0.000000
                       1.000000  1.000000  1.000000  1.000000  0.000000  0.000000
                       0.000000  0.000000
                       1.000000  1.000000  1.000000  1.000000  0.000000  0.000000
                       0.000000  0.000000
                       1.000000  1.000000  1.000000  1.000000  0.000000  0.000000
                       0.000000  0.000000
                       1.000000  1.000000  1.000000  1.000000  0.000000  0.000000
                       0.000000  0.000000
                       1.000000  1.000000  1.000000  1.000000  0.000000  0.000000
                       0.000000  0.000000
                       1.000000  1.000000  1.000000  1.000000  0.000000  0.000000
                       0.000000  0.000000
                       1.000000  1.000000  1.000000  1.000000  0.000000  0.000000
                       0.000000  0.000000
                       1.000000  1.000000  1.000000  1.000000  0.000000  0.000000
                       0.000000  0.000000
                       1.000000  1.000000  1.000000  1.000000  0.000000  0.000000
                       0.000000  0.000000
           occopt           3
           prtdos           1
            rprim     -5.0000000000E-01  5.0000000000E-01  5.0000000000E-01
                       5.0000000000E-01 -5.0000000000E-01  5.0000000000E-01
                       5.0000000000E-01  5.0000000000E-01 -5.0000000000E-01
           shiftk      5.00000000E-01  5.00000000E-01  5.00000000E-01
          spgroup         229
           spinat1     0.0000000000E+00  0.0000000000E+00  0.0000000000E+00
           spinat2     0.0000000000E+00  0.0000000000E+00  4.0000000000E+00
           symrel      1  0  0   0  1  0   0  0  1      -1  0  0   0 -1  0   0  0 -1
                      -1 -1 -1   0  0  1   0  1  0       1  1  1   0  0 -1   0 -1  0
                       0  1  0   1  0  0  -1 -1 -1       0 -1  0  -1  0  0   1  1  1
                       0  0  1  -1 -1 -1   1  0  0       0  0 -1   1  1  1  -1  0  0
                       0  1  0   1  0  0   0  0  1       0 -1  0  -1  0  0   0  0 -1
                      -1 -1 -1   0  0  1   1  0  0       1  1  1   0  0 -1  -1  0  0
                       1  0  0   0  1  0  -1 -1 -1      -1  0  0   0 -1  0   1  1  1
                       0  0  1  -1 -1 -1   0  1  0       0  0 -1   1  1  1   0 -1  0
                      -1 -1 -1   1  0  0   0  0  1       1  1  1  -1  0  0   0  0 -1
                       0  1  0   0  0  1   1  0  0       0 -1  0   0  0 -1  -1  0  0
                       1  0  0  -1 -1 -1   0  1  0      -1  0  0   1  1  1   0 -1  0
                       0  0  1   0  1  0  -1 -1 -1       0  0 -1   0 -1  0   1  1  1
                       1  0  0  -1 -1 -1   0  0  1      -1  0  0   1  1  1   0  0 -1
                       0  1  0   0  0  1  -1 -1 -1       0 -1  0   0  0 -1   1  1  1
                      -1 -1 -1   1  0  0   0  1  0       1  1  1  -1  0  0   0 -1  0
                       0  0  1   0  1  0   1  0  0       0  0 -1   0 -1  0  -1  0  0
                       0  1  0  -1 -1 -1   0  0  1       0 -1  0   1  1  1   0  0 -1
                       1  0  0   0  0  1  -1 -1 -1      -1  0  0   0  0 -1   1  1  1
                      -1 -1 -1   0  1  0   1  0  0       1  1  1   0 -1  0  -1  0  0
                       0  0  1   1  0  0   0  1  0       0  0 -1  -1  0  0   0 -1  0
                      -1 -1 -1   0  1  0   0  0  1       1  1  1   0 -1  0   0  0 -1
                       1  0  0   0  0  1   0  1  0      -1  0  0   0  0 -1   0 -1  0
                       0  1  0  -1 -1 -1   1  0  0       0 -1  0   1  1  1  -1  0  0
                       0  0  1   1  0  0  -1 -1 -1       0  0 -1  -1  0  0   1  1  1
           tolvrs      1.00000000E-10
           tsmear      1.00000000E-02 Hartree
            typat      1
              wtk        0.12500    0.18750    0.09375    0.37500    0.12500    0.09375
            znucl       26.00000

================================================================================

 chkinp: machine precision is   2.2204460492503131E-16

 chkinp: Checking input parameters for consistency, jdtset=   1.

 chkinp: Checking input parameters for consistency, jdtset=   2.
 DATA TYPE INFORMATION: 
 REAL:      Data type name: REAL(DP) 
            Kind value:      8
            Precision:      15
            Smallest nonnegligible quantity relative to 1:  0.22204460E-15
            Smallest positive number:                       0.22250739-307
            Largest representable number:                   0.17976931+309
 INTEGER:   Data type name: INTEGER(default) 
            Kind value: 4
            Bit size:   32
            Largest representable number: 2147483647
 LOGICAL:   Data type name: LOGICAL 
            Kind value: 4
 CHARACTER: Data type name: CHARACTER             Kind value: 1

  ==== OpenMP parallelism is OFF ====
 
  MPI-IO support is OFF

================================================================================
== DATASET  1 ==================================================================
-   nproc =    1


 getdim_nloc : deduce lmnmax  =   8, lnmax  =   2,
                      lmnmaxso=   8, lnmaxso=   2.
 Exchange-correlation functional for the present dataset will be:
  LDA: new Teter (4/93) with spin-polarized option - ixc=1
 Citation for XC functional:
  S. Goedecker, M. Teter, J. Huetter, PRB 54, 1703 (1996)

 Unit cell volume ucvol=  7.9610044E+01 bohr^3
 Angles (23,13,12)=  1.09471221E+02  1.09471221E+02  1.09471221E+02 degrees

 getcut: wavevector=  0.0000  0.0000  0.0000  ngfft=  18  18  18
         ecut(hartree)=     18.000   => boxcut(ratio)=   2.00790
- pspini: atom type   1  psp file is ./26fe.pspnc
- pspatm: opening atomic psp file    ./26fe.pspnc
-  Troullier-Martins psp for element  Fe        Thu Oct 27 17:35:05 EDT 1994
- 26.00000   8.00000    940714                znucl, zion, pspdat
    1    1    2    0      2001   0.00000      pspcod,pspxc,lmax,lloc,mmax,r2well
    0   4.333  10.868    0   2.2918558        l,e99.0,e99.9,nproj,rcpsp
   0.00000000   0.00000000   0.00000000   0.00000000     rms, ekb1, ekb2, epsatm
    1   1.213   4.197    1   2.8345121        l,e99.0,e99.9,nproj,rcpsp
   0.00000000   0.00000000   0.00000000   0.00000000     rms, ekb1, ekb2, epsatm
    2  18.664  23.972    1   2.2918558        l,e99.0,e99.9,nproj,rcpsp
   0.00000000   0.00000000   0.00000000   0.00000000     rms, ekb1, ekb2, epsatm
    1.56404770202776    2.06158206779471    6.88331421535388   rchrg,fchrg,qchrg
 pspatm: epsatm=   62.03296659
         --- l  ekb(1:nproj) -->
             1    1.561134
             2   -8.115829
 pspatm: atomic psp has been read  and splines computed

   4.96263733E+02                                ecore*ucvol(ha*bohr**3)
   1  1  1  1  1  1  1  1  1  1  1  1  1  1  1  1  1  1  1  1  1  1  1  1
   1  1  1  1  1  1  1  1  1  1  1  1  1  1  1  1  1  1  1  1  1  1  1  1
 wfconv:     8 bands initialized randomly with npw=   294, for ikpt=     1
 wfconv:     8 bands initialized randomly with npw=   296, for ikpt=     2
 wfconv:     8 bands initialized randomly with npw=   301, for ikpt=     3
 wfconv:     8 bands initialized randomly with npw=   286, for ikpt=     4
 wfconv:     8 bands initialized randomly with npw=   291, for ikpt=     5
 wfconv:     8 bands initialized randomly with npw=   281, for ikpt=     6

_setup2: Arith. and geom. avg. npw (full set) are     290.438     290.380
 initro : for itypat=  1, take decay length=      0.8000,
 initro : indeed, coreel=     18.0000, nval=  8 and densty=  0.0000E+00.

================================================================================

 getcut: wavevector=  0.0000  0.0000  0.0000  ngfft=  18  18  18
         ecut(hartree)=     18.000   => boxcut(ratio)=   2.00790

 ITER STEP NUMBER     1
 vtorho : nnsclo_now=  2, note that nnsclo,dbl_nnsclo,istep=  0 0  1
 Non-SCF iterations; kpt #     1  , k= (  0.12500  0.12500  0.12500  ), band residuals:
 res:  1.11E+00  7.27E-01  7.13E-01  2.87E-01  6.89E-01  3.16E-01  2.12E-01  2.40E-01
 ene: -6.58E-01 -6.17E-01 -5.86E-01 -5.51E-01 -4.64E-01 -1.51E-01  3.64E-01  4.04E-01
 res:  2.54E-03  2.67E-03  6.61E-03  4.74E-03  8.54E-03  1.41E-02  3.79E-03  1.01E-02
 ene: -7.30E-01 -7.29E-01 -6.93E-01 -6.83E-01 -6.82E-01 -4.37E-01  2.98E-01  3.19E-01
     eigenvalues (hartree) for    8  bands
              after    3 non-SCF iterations with    4 CG line minimizations
 -7.3038E-01 -7.2916E-01 -6.9332E-01 -6.8271E-01 -6.8183E-01 -4.3697E-01
  2.9784E-01  3.1915E-01
 Non-SCF iterations; kpt #     2  , k= (  0.37500  0.12500  0.12500  ), band residuals:
 res:  7.40E-01  3.57E-01  4.82E-01  2.42E-01  1.16E+00  3.77E-01  1.03E-01  1.66E-01
 ene: -6.60E-01 -6.23E-01 -5.61E-01 -2.81E-01 -1.32E-01 -8.63E-03  2.78E-01  3.78E-01
 res:  1.62E-03  4.08E-03  5.91E-03  4.73E-02  3.96E-01  8.02E-02  1.68E-01  4.51E-02
 ene: -7.39E-01 -7.25E-01 -6.85E-01 -6.80E-01 -6.62E-01 -1.76E-01 -7.37E-02  2.21E-01
     eigenvalues (hartree) for    8  bands
              after    3 non-SCF iterations with    4 CG line minimizations
 -7.3861E-01 -7.2539E-01 -6.8496E-01 -6.7995E-01 -6.6207E-01 -1.7576E-01
 -7.3738E-02  2.2102E-01
 Non-SCF iterations; kpt #     3  , k= ( -0.12500  0.12500  0.12500  ), band residuals:
 res:  7.75E-01  6.74E-01  5.25E-01  7.64E-01  6.72E-01  3.38E-01  5.45E-01  3.65E-01
 ene: -6.82E-01 -6.53E-01 -6.15E-01 -5.31E-01 -4.59E-01 -2.19E-01  6.46E-01  7.33E-01
 res:  1.28E-03  1.67E-03  4.25E-03  6.55E-03  1.44E-02  1.39E-02  3.82E-03  1.02E-02
 ene: -7.37E-01 -7.17E-01 -7.16E-01 -7.02E-01 -6.82E-01 -5.37E-01  5.65E-01  5.77E-01
     eigenvalues (hartree) for    8  bands
              after    3 non-SCF iterations with    4 CG line minimizations
 -7.3651E-01 -7.1733E-01 -7.1610E-01 -7.0216E-01 -6.8151E-01 -5.3736E-01
  5.6501E-01  5.7708E-01
 Non-SCF iterations; kpt #     4  , k= ( -0.37500  0.37500  0.12500  ), band residuals:
 res:  1.18E+00  8.15E-01  7.11E-01  6.10E-01  2.69E-01  4.13E-01  4.13E-01  2.56E-01
 ene: -6.36E-01 -6.08E-01 -5.74E-01 -5.61E-01 -4.34E-01 -2.27E-01  1.47E-01  6.35E-01
 res:  2.64E-03  3.62E-03  6.58E-03  5.85E-03  2.03E-02  1.20E-02  7.89E-03  1.61E-02
 ene: -7.27E-01 -7.21E-01 -6.91E-01 -6.80E-01 -6.53E-01 -3.42E-01  5.24E-02  3.79E-01
     eigenvalues (hartree) for    8  bands
              after    3 non-SCF iterations with    4 CG line minimizations
 -7.2743E-01 -7.2134E-01 -6.9099E-01 -6.8037E-01 -6.5258E-01 -3.4218E-01
  5.2369E-02  3.7915E-01
 Non-SCF iterations; kpt #     5  , k= ( -0.37500 -0.37500  0.12500  ), band residuals:
 res:  7.20E-01  6.94E-01  1.89E-01  4.45E-01  6.20E-01  8.85E-02  8.04E-01  1.36E+00
 ene: -6.59E-01 -5.97E-01 -5.44E-01 -3.75E-01 -7.55E-02  1.72E-02  9.94E-02  3.76E-01
 res:  1.61E-03  5.01E-03  1.03E-02  3.55E-02  1.59E-01  6.09E-02  2.63E-02  2.86E-02
 ene: -7.24E-01 -7.15E-01 -7.06E-01 -6.74E-01 -6.39E-01 -6.83E-02 -5.95E-02 -1.87E-02
     eigenvalues (hartree) for    8  bands
              after    3 non-SCF iterations with    4 CG line minimizations
 -7.2417E-01 -7.1475E-01 -7.0562E-01 -6.7424E-01 -6.3933E-01 -6.8256E-02
 -5.9453E-02 -1.8661E-02
 Non-SCF iterations; kpt #     6  , k= ( -0.37500  0.37500  0.37500  ), band residuals:
 res:  9.16E-01  6.14E-01  3.58E-01  4.42E-01  5.61E-01  3.20E-01  1.97E-01  1.92E-01
 ene: -6.84E-01 -6.34E-01 -5.84E-01 -4.67E-01 -3.73E-01  6.33E-02  2.26E-01  4.07E-01
 res:  1.80E-03  2.56E-03  6.74E-03  2.12E-02  3.47E-02  3.42E-02  5.82E-03  2.77E-02
 ene: -7.26E-01 -7.14E-01 -6.60E-01 -6.60E-01 -6.50E-01 -1.36E-01  1.31E-01  1.36E-01
     eigenvalues (hartree) for    8  bands
              after    3 non-SCF iterations with    4 CG line minimizations
 -7.2631E-01 -7.1408E-01 -6.5975E-01 -6.5950E-01 -6.5021E-01 -1.3560E-01
  1.3050E-01  1.3557E-01
 newocc : new Fermi energy is      -0.665909 , with nelect=      8.000000
  Number of bissection calls =  49
 newocc : computed new occ. numbers for occopt=    3 , spin-unpolarized case.
 1.997 1.996 1.879 1.686 1.662 0.000 0.000 0.000
 1.999 1.995 1.741 1.606 0.811 0.000 0.000 0.000
 1.998 1.988 1.987 1.948 1.653 0.000 0.000 0.000
 1.996 1.992 1.849 1.619 0.417 0.000 0.000 0.000
 1.994 1.985 1.963 1.394 0.131 0.000 0.000 0.000
 1.995 1.984 0.701 0.690 0.344 0.000 0.000 0.000
mkrho: echo density (plane-wave part only)
 Total charge density [el/Bohr^3]
,     Maximum=    1.0095E+00  at reduced coord.    0.0000    0.8333    0.8333
,     Minimum=    2.2187E-04  at reduced coord.    0.0000    0.0000    0.0000
,  Integrated=    8.0000E+00
 Total charge density [el/Bohr^3]
,     Maximum=    1.0095E+00  at reduced coord.    0.0000    0.8333    0.8333
,     Minimum=    2.2187E-04  at reduced coord.    0.0000    0.0000    0.0000
,  Integrated=    8.0000E+00
 ETOT  1  -23.451959980875    -2.345E+01 3.955E-01 1.127E+03
 scprqt: <Vxc>= -4.2787932E-01 hartree
 scfcge:
 scfcge:istep-iline_cge-ilinmin lambda      etot             resid
 scfcge: actual     1-0-0   0.0000E+00 -2.345195998088E+01  6.6389E+02

 ITER STEP NUMBER     2
 vtorho : nnsclo_now=  2, note that nnsclo,dbl_nnsclo,istep=  0 0  2
 Non-SCF iterations; kpt #     1  , k= (  0.12500  0.12500  0.12500  ), band residuals:
 res:  1.90E-02  3.62E-02  3.37E-02  7.01E-03  7.74E-03  3.11E-02  1.51E-02  4.45E-02
 ene: -4.17E-01 -1.05E-01 -1.05E-01  6.29E-02  6.40E-02  7.67E-02  4.78E-01  4.84E-01
 res:  4.95E-07  2.38E-06  2.18E-05  1.28E-05  2.27E-04  1.70E-04  3.27E-05  3.77E-06
 ene: -4.17E-01 -1.06E-01 -1.06E-01  6.24E-02  6.24E-02  7.59E-02  4.78E-01  4.83E-01
     eigenvalues (hartree) for    8  bands
              after    3 non-SCF iterations with    4 CG line minimizations
 -4.1678E-01 -1.0567E-01 -1.0567E-01  6.2374E-02  6.2410E-02  7.5854E-02
  4.7801E-01  4.8345E-01
 Non-SCF iterations; kpt #     2  , k= (  0.37500  0.12500  0.12500  ), band residuals:
 res:  4.12E-02  6.51E-02  9.77E-03  9.38E-03  2.07E-02  2.99E-02  5.24E-02  3.28E-02
 ene: -2.38E-01 -2.19E-01 -1.40E-01  7.08E-02  7.85E-02  1.77E-01  2.33E-01  3.78E-01
 res:  5.51E-05  2.45E-06  2.47E-05  5.00E-05  1.60E-04  1.84E-04  8.12E-04  1.55E-03
 ene: -2.40E-01 -2.20E-01 -1.41E-01  7.06E-02  7.79E-02  1.76E-01  2.30E-01  3.73E-01
     eigenvalues (hartree) for    8  bands
              after    3 non-SCF iterations with    4 CG line minimizations
 -2.3993E-01 -2.1960E-01 -1.4099E-01  7.0578E-02  7.7885E-02  1.7642E-01
  2.3010E-01  3.7261E-01
 Non-SCF iterations; kpt #     3  , k= ( -0.12500  0.12500  0.12500  ), band residuals:
 res:  7.21E-04  2.33E-02  1.45E-02  3.10E-02  1.13E-02  1.12E-02  3.03E-02  3.18E-02
 ene: -5.02E-01 -3.86E-02 -3.43E-02 -2.44E-02  2.46E-03  7.77E-02  6.48E-01  6.99E-01
 res:  3.49E-07  1.42E-06  2.18E-05  4.40E-07  1.85E-05  2.05E-05  1.35E-03  5.02E-03
 ene: -5.02E-01 -3.87E-02 -3.87E-02 -2.45E-02  1.62E-03  7.73E-02  6.43E-01  6.87E-01
     eigenvalues (hartree) for    8  bands
              after    3 non-SCF iterations with    4 CG line minimizations
 -5.0184E-01 -3.8708E-02 -3.8706E-02 -2.4470E-02  1.6223E-03  7.7305E-02
  6.4283E-01  6.8746E-01
 Non-SCF iterations; kpt #     4  , k= ( -0.37500  0.37500  0.12500  ), band residuals:
 res:  1.67E-02  5.93E-02  1.97E-02  1.15E-02  5.36E-03  2.94E-02  4.74E-02  2.55E-02
 ene: -3.43E-01 -1.52E-01 -8.11E-02  2.20E-02  8.29E-02  1.12E-01  3.27E-01  5.09E-01
 res:  1.77E-07  6.60E-06  1.14E-05  5.36E-05  1.23E-05  1.09E-04  1.33E-04  6.29E-06
 ene: -3.43E-01 -1.53E-01 -8.18E-02  2.13E-02  8.25E-02  1.11E-01  3.26E-01  5.08E-01
     eigenvalues (hartree) for    8  bands
              after    3 non-SCF iterations with    4 CG line minimizations
 -3.4346E-01 -1.5258E-01 -8.1779E-02  2.1251E-02  8.2486E-02  1.1147E-01
  3.2625E-01  5.0845E-01
 Non-SCF iterations; kpt #     5  , k= ( -0.37500 -0.37500  0.12500  ), band residuals:
 res:  2.78E-02  3.80E-02  4.24E-02  1.35E-02  1.77E-02  4.40E-02  4.43E-02  2.56E-02
 ene: -2.05E-01 -2.05E-01 -1.36E-01  5.55E-02  5.56E-02  2.28E-01  2.28E-01  2.29E-01
 res:  2.18E-06  2.42E-06  2.84E-06  7.68E-06  7.02E-06  2.25E-06  4.68E-05  8.91E-06
 ene: -2.05E-01 -2.05E-01 -1.36E-01  5.54E-02  5.54E-02  2.28E-01  2.28E-01  2.29E-01
     eigenvalues (hartree) for    8  bands
              after    3 non-SCF iterations with    4 CG line minimizations
 -2.0516E-01 -2.0516E-01 -1.3638E-01  5.5420E-02  5.5421E-02  2.2772E-01
  2.2772E-01  2.2898E-01
 Non-SCF iterations; kpt #     6  , k= ( -0.37500  0.37500  0.37500  ), band residuals:
 res:  6.70E-03  2.75E-02  1.76E-03  1.54E-02  2.03E-02  2.51E-02  1.63E-02  1.79E-02
 ene: -2.45E-01 -1.76E-01  2.05E-02  2.10E-02  6.77E-02  1.07E-01  2.99E-01  2.99E-01
 res:  1.91E-05  1.42E-05  2.98E-06  1.03E-05  5.13E-05  1.99E-06  1.18E-05  1.60E-05
 ene: -2.46E-01 -1.77E-01  2.04E-02  2.04E-02  6.64E-02  1.07E-01  2.99E-01  2.99E-01
     eigenvalues (hartree) for    8  bands
              after    3 non-SCF iterations with    4 CG line minimizations
 -2.4614E-01 -1.7678E-01  2.0444E-02  2.0445E-02  6.6392E-02  1.0705E-01
  2.9903E-01  2.9903E-01
 newocc : new Fermi energy is       0.056604 , with nelect=      8.000000
  Number of bissection calls =  50
 newocc : computed new occ. numbers for occopt=    3 , spin-unpolarized case.
 2.000 2.000 2.000 0.719 0.718 0.255 0.000 0.000
 2.000 2.000 2.000 0.396 0.213 0.000 0.000 0.000
 2.000 2.000 2.000 1.999 1.992 0.224 0.000 0.000
 2.000 2.000 2.000 1.943 0.140 0.008 0.000 0.000
 2.000 2.000 2.000 1.059 1.059 0.000 0.000 0.000
 2.000 2.000 1.948 1.948 0.546 0.013 0.000 0.000
mkrho: echo density (plane-wave part only)
 Total charge density [el/Bohr^3]
,     Maximum=    4.0483E-01  at reduced coord.    0.8333    0.8333    0.8333
,     Minimum=    9.7446E-04  at reduced coord.    0.0000    0.0000    0.0000
,  Integrated=    8.0000E+00
 Total charge density [el/Bohr^3]
,     Maximum=    4.0483E-01  at reduced coord.    0.8333    0.8333    0.8333
,     Minimum=    9.7446E-04  at reduced coord.    0.0000    0.0000    0.0000
,  Integrated=    8.0000E+00
 ETOT  2  -23.916448283243    -4.645E-01 5.021E-03 6.637E+02
 scprqt: <Vxc>= -5.5403535E-01 hartree
 findmin : lambda_predict   5.6445E-01 etotal_predict  -2.4670151930E+01
 scfcge: actual     2-0-1   1.0000E+00 -2.391644828324E+01  3.9436E+02
 scfcge: predict            5.6445E-01 not close enough => continue minim.

 ITER STEP NUMBER     3
 vtorho : nnsclo_now=  1, note that nnsclo,dbl_nnsclo,istep=  0 0  3
 Non-SCF iterations; kpt #     1  , k= (  0.12500  0.12500  0.12500  ), band residuals:
 res:  1.20E-03  3.13E-03  2.26E-02  2.71E-03  7.27E-04  1.07E-02  1.11E-02  2.45E-02
 ene: -5.10E-01 -4.08E-01 -4.08E-01 -3.15E-01 -3.15E-01 -2.93E-01  3.16E-01  3.24E-01
     eigenvalues (hartree) for    8  bands
              after    2 non-SCF iterations with    4 CG line minimizations
 -5.1018E-01 -4.0771E-01 -4.0761E-01 -3.1546E-01 -3.1543E-01 -2.9328E-01
  3.1638E-01  3.2390E-01
 Non-SCF iterations; kpt #     2  , k= (  0.37500  0.12500  0.12500  ), band residuals:
 res:  1.85E-02  8.80E-03  6.05E-03  1.79E-03  1.78E-04  8.86E-03  2.01E-02  1.98E-02
 ene: -4.51E-01 -4.28E-01 -3.78E-01 -3.14E-01 -3.11E-01 -1.54E-01 -2.78E-02  2.15E-01
     eigenvalues (hartree) for    8  bands
              after    2 non-SCF iterations with    4 CG line minimizations
 -4.5150E-01 -4.2816E-01 -3.7777E-01 -3.1408E-01 -3.1071E-01 -1.5440E-01
 -2.7849E-02  2.1476E-01
 Non-SCF iterations; kpt #     3  , k= ( -0.12500  0.12500  0.12500  ), band residuals:
 res:  2.11E-04  3.08E-04  2.56E-03  9.89E-06  2.50E-02  2.48E-03  2.51E-02  5.49E-03
 ene: -5.87E-01 -3.84E-01 -3.78E-01 -3.78E-01 -3.46E-01 -3.06E-01  5.24E-01  5.68E-01
     eigenvalues (hartree) for    8  bands
              after    2 non-SCF iterations with    4 CG line minimizations
 -5.8666E-01 -3.8418E-01 -3.7766E-01 -3.7755E-01 -3.4627E-01 -3.0586E-01
  5.2358E-01  5.6810E-01
 Non-SCF iterations; kpt #     4  , k= ( -0.37500  0.37500  0.12500  ), band residuals:
 res:  4.00E-03  2.07E-02  6.58E-03  7.05E-03  2.12E-03  3.82E-03  2.20E-02  1.60E-02
 ene: -4.71E-01 -4.00E-01 -3.82E-01 -3.25E-01 -2.77E-01 -2.77E-01  9.37E-02  3.65E-01
     eigenvalues (hartree) for    8  bands
              after    2 non-SCF iterations with    4 CG line minimizations
 -4.7145E-01 -4.0030E-01 -3.8246E-01 -3.2541E-01 -2.7741E-01 -2.7654E-01
  9.3655E-02  3.6474E-01
 Non-SCF iterations; kpt #     5  , k= ( -0.37500 -0.37500  0.12500  ), band residuals:
 res:  1.72E-02  1.72E-02  1.64E-02  4.26E-03  4.26E-03  1.76E-02  1.76E-02  1.64E-02
 ene: -4.18E-01 -4.18E-01 -4.10E-01 -3.09E-01 -3.09E-01 -4.12E-02 -4.12E-02  2.45E-02
     eigenvalues (hartree) for    8  bands
              after    2 non-SCF iterations with    4 CG line minimizations
 -4.1774E-01 -4.1774E-01 -4.1018E-01 -3.0894E-01 -3.0894E-01 -4.1211E-02
 -4.1210E-02  2.4463E-02
 Non-SCF iterations; kpt #     6  , k= ( -0.37500  0.37500  0.37500  ), band residuals:
 res:  1.09E-02  1.26E-04  2.36E-02  2.36E-02  1.10E-02  7.79E-05  2.34E-02  2.34E-02
 ene: -4.47E-01 -4.34E-01 -3.03E-01 -3.03E-01 -2.85E-01 -1.38E-01  1.23E-01  1.23E-01
     eigenvalues (hartree) for    8  bands
              after    2 non-SCF iterations with    4 CG line minimizations
 -4.4666E-01 -4.3411E-01 -3.0285E-01 -3.0284E-01 -2.8524E-01 -1.3843E-01
  1.2321E-01  1.2321E-01
 newocc : new Fermi energy is      -0.310998 , with nelect=      8.000000
  Number of bissection calls =  49
 newocc : computed new occ. numbers for occopt=    3 , spin-unpolarized case.
 2.000 2.000 2.000 1.219 1.218 0.291 0.000 0.000
 2.000 2.000 1.997 1.153 0.986 0.000 0.000 0.000
 2.000 1.999 1.997 1.997 1.943 0.749 0.000 0.000
 2.000 2.000 1.998 1.617 0.067 0.062 0.000 0.000
 2.000 2.000 2.000 0.897 0.897 0.000 0.000 0.000
 2.000 2.000 0.614 0.614 0.141 0.000 0.000 0.000
mkrho: echo density (plane-wave part only)
 Total charge density [el/Bohr^3]
,     Maximum=    6.3897E-01  at reduced coord.    0.7778    0.8889    0.8889
,     Minimum=    1.2353E-03  at reduced coord.    0.0000    0.0000    0.0000
,  Integrated=    8.0000E+00
 Total charge density [el/Bohr^3]
,     Maximum=    6.3897E-01  at reduced coord.    0.7778    0.8889    0.8889
,     Minimum=    1.2353E-03  at reduced coord.    0.0000    0.0000    0.0000
,  Integrated=    8.0000E+00
 ETOT  3  -24.655516574692    -7.391E-01 2.508E-02 6.898E+00
 scprqt: <Vxc>= -5.1323771E-01 hartree
 findmin : lambda_predict   5.9377E-01 etotal_predict  -2.4659468010E+01
 scfcge: actual     3-0-2   5.6445E-01 -2.465551657469E+01  4.2555E+00
 scfcge: predict            5.9377E-01 suff. close => next line, ilinear= 0
 scfcge:
 scfcge: start      3-1-0   0.0000E+00 -2.465551657469E+01  4.2555E+00

 ITER STEP NUMBER     4
 vtorho : nnsclo_now=  1, note that nnsclo,dbl_nnsclo,istep=  0 0  4
 Non-SCF iterations; kpt #     1  , k= (  0.12500  0.12500  0.12500  ), band residuals:
 res:  1.29E-04  4.22E-05  2.49E-04  3.16E-05  6.19E-06  1.68E-04  2.72E-04  2.62E-02
 ene: -4.73E-01 -3.40E-01 -3.40E-01 -2.43E-01 -2.43E-01 -2.21E-01  3.55E-01  3.63E-01
     eigenvalues (hartree) for    8  bands
              after    2 non-SCF iterations with    4 CG line minimizations
 -4.7268E-01 -3.3974E-01 -3.3972E-01 -2.4276E-01 -2.4275E-01 -2.2087E-01
  3.5517E-01  3.6334E-01
 Non-SCF iterations; kpt #     2  , k= (  0.37500  0.12500  0.12500  ), band residuals:
 res:  4.30E-04  8.22E-05  4.94E-04  1.59E-06  3.77E-05  4.98E-04  3.76E-04  5.57E-04
 ene: -3.94E-01 -3.62E-01 -3.24E-01 -2.40E-01 -2.37E-01 -9.87E-02  2.71E-02  2.59E-01
     eigenvalues (hartree) for    8  bands
              after    2 non-SCF iterations with    4 CG line minimizations
 -3.9352E-01 -3.6163E-01 -3.2393E-01 -2.4033E-01 -2.3732E-01 -9.8677E-02
  2.7125E-02  2.5883E-01
 Non-SCF iterations; kpt #     3  , k= ( -0.12500  0.12500  0.12500  ), band residuals:
 res:  2.86E-05  4.87E-07  3.62E-06  2.31E-05  2.11E-04  2.65E-05  2.37E-04  5.96E-05
 ene: -5.51E-01 -3.11E-01 -3.06E-01 -3.06E-01 -2.76E-01 -2.33E-01  5.51E-01  6.09E-01
     eigenvalues (hartree) for    8  bands
              after    2 non-SCF iterations with    4 CG line minimizations
 -5.5148E-01 -3.1114E-01 -3.0625E-01 -3.0625E-01 -2.7618E-01 -2.3298E-01
  5.5117E-01  6.0875E-01
 Non-SCF iterations; kpt #     4  , k= ( -0.37500  0.37500  0.12500  ), band residuals:
 res:  3.18E-04  8.89E-05  3.88E-04  6.10E-05  3.62E-05  2.84E-04  3.37E-04  1.58E-03
 ene: -4.24E-01 -3.31E-01 -3.25E-01 -2.54E-01 -2.11E-01 -2.02E-01  1.43E-01  4.02E-01
     eigenvalues (hartree) for    8  bands
              after    2 non-SCF iterations with    4 CG line minimizations
 -4.2439E-01 -3.3111E-01 -3.2517E-01 -2.5448E-01 -2.1097E-01 -2.0185E-01
  1.4286E-01  4.0184E-01
 Non-SCF iterations; kpt #     5  , k= ( -0.37500 -0.37500  0.12500  ), band residuals:
 res:  3.66E-04  3.66E-04  1.75E-04  4.83E-05  4.81E-05  4.06E-04  4.06E-04  1.74E-04
 ene: -3.60E-01 -3.60E-01 -3.44E-01 -2.36E-01 -2.36E-01  8.46E-03  8.46E-03  7.54E-02
     eigenvalues (hartree) for    8  bands
              after    2 non-SCF iterations with    4 CG line minimizations
 -3.5957E-01 -3.5957E-01 -3.4402E-01 -2.3554E-01 -2.3554E-01  8.4560E-03
  8.4560E-03  7.5396E-02
 Non-SCF iterations; kpt #     6  , k= ( -0.37500  0.37500  0.37500  ), band residuals:
 res:  2.43E-04  6.77E-07  1.43E-04  1.43E-04  2.85E-07  2.39E-04  1.42E-04  1.42E-04
 ene: -3.91E-01 -3.73E-01 -2.31E-01 -2.31E-01 -2.09E-01 -9.06E-02  1.67E-01  1.67E-01
     eigenvalues (hartree) for    8  bands
              after    2 non-SCF iterations with    4 CG line minimizations
 -3.9097E-01 -3.7329E-01 -2.3089E-01 -2.3089E-01 -2.0946E-01 -9.0648E-02
  1.6728E-01  1.6728E-01
 newocc : new Fermi energy is      -0.238512 , with nelect=      8.000000
  Number of bissection calls =  50
 newocc : computed new occ. numbers for occopt=    3 , spin-unpolarized case.
 2.000 2.000 2.000 1.209 1.209 0.292 0.000 0.000
 2.000 2.000 2.000 1.091 0.940 0.000 0.000 0.000
 2.000 1.999 1.998 1.998 1.955 0.730 0.000 0.000
 2.000 2.000 2.000 1.663 0.120 0.050 0.000 0.000
 2.000 2.000 2.000 0.853 0.853 0.000 0.000 0.000
 2.000 2.000 0.636 0.636 0.104 0.000 0.000 0.000
mkrho: echo density (plane-wave part only)
 Total charge density [el/Bohr^3]
,     Maximum=    6.0632E-01  at reduced coord.    0.7778    0.8889    0.8889
,     Minimum=    1.1942E-03  at reduced coord.    0.0000    0.0000    0.0000
,  Integrated=    8.0000E+00
 Total charge density [el/Bohr^3]
,     Maximum=    6.0632E-01  at reduced coord.    0.7778    0.8889    0.8889
,     Minimum=    1.1942E-03  at reduced coord.    0.0000    0.0000    0.0000
,  Integrated=    8.0000E+00
 ETOT  4  -24.658010539234    -2.494E-03 2.616E-02 3.074E+00
 scprqt: <Vxc>= -5.2036103E-01 hartree
 nlinear, ilinear  0  0
 scfcge: actual     4-1-off 7.0000E-01 -2.465801053923E+01  1.8445E+00, end=3

 ITER STEP NUMBER     5
 vtorho : nnsclo_now=  1, note that nnsclo,dbl_nnsclo,istep=  0 0  5
 Non-SCF iterations; kpt #     1  , k= (  0.12500  0.12500  0.12500  ), band residuals:
 res:  3.37E-05  1.27E-04  1.22E-04  1.34E-05  1.58E-05  3.44E-05  1.38E-04  1.85E-04
 ene: -4.78E-01 -3.65E-01 -3.65E-01 -2.73E-01 -2.73E-01 -2.50E-01  3.46E-01  3.46E-01
     eigenvalues (hartree) for    8  bands
              after    2 non-SCF iterations with    4 CG line minimizations
 -4.7798E-01 -3.6476E-01 -3.6476E-01 -2.7262E-01 -2.7262E-01 -2.4963E-01
  3.4607E-01  3.4621E-01
 Non-SCF iterations; kpt #     2  , k= (  0.37500  0.12500  0.12500  ), band residuals:
 res:  1.97E-04  1.67E-05  1.99E-04  1.03E-06  5.48E-06  1.99E-04  1.73E-04  5.82E-05
 ene: -4.12E-01 -3.86E-01 -3.40E-01 -2.71E-01 -2.67E-01 -1.18E-01  1.07E-02  2.51E-01
     eigenvalues (hartree) for    8  bands
              after    2 non-SCF iterations with    4 CG line minimizations
 -4.1237E-01 -3.8566E-01 -3.3997E-01 -2.7106E-01 -2.6743E-01 -1.1799E-01
  1.0701E-02  2.5076E-01
 Non-SCF iterations; kpt #     3  , k= ( -0.12500  0.12500  0.12500  ), band residuals:
 res:  3.58E-06  1.53E-07  2.52E-06  1.30E-05  1.15E-04  1.22E-05  1.21E-04  2.12E-05
 ene: -5.55E-01 -3.40E-01 -3.33E-01 -3.33E-01 -3.04E-01 -2.63E-01  5.45E-01  6.03E-01
     eigenvalues (hartree) for    8  bands
              after    2 non-SCF iterations with    4 CG line minimizations
 -5.5537E-01 -3.3965E-01 -3.3345E-01 -3.3345E-01 -3.0449E-01 -2.6316E-01
  5.4548E-01  6.0278E-01
 Non-SCF iterations; kpt #     4  , k= ( -0.37500  0.37500  0.12500  ), band residuals:
 res:  1.29E-04  5.66E-05  1.72E-04  2.19E-05  9.77E-05  2.00E-05  1.64E-04  1.56E-04
 ene: -4.36E-01 -3.57E-01 -3.44E-01 -2.83E-01 -2.36E-01 -2.33E-01  1.29E-01  3.92E-01
     eigenvalues (hartree) for    8  bands
              after    2 non-SCF iterations with    4 CG line minimizations
 -4.3582E-01 -3.5703E-01 -3.4440E-01 -2.8266E-01 -2.3615E-01 -2.3254E-01
  1.2948E-01  3.9217E-01
 Non-SCF iterations; kpt #     5  , k= ( -0.37500 -0.37500  0.12500  ), band residuals:
 res:  1.71E-04  1.71E-04  1.04E-04  2.71E-05  2.71E-05  1.88E-04  1.88E-04  1.04E-04
 ene: -3.79E-01 -3.79E-01 -3.68E-01 -2.65E-01 -2.65E-01 -6.43E-03 -6.43E-03  6.40E-02
     eigenvalues (hartree) for    8  bands
              after    2 non-SCF iterations with    4 CG line minimizations
 -3.7938E-01 -3.7938E-01 -3.6767E-01 -2.6496E-01 -2.6496E-01 -6.4285E-03
 -6.4285E-03  6.3953E-02
 Non-SCF iterations; kpt #     6  , k= ( -0.37500  0.37500  0.37500  ), band residuals:
 res:  1.16E-04  2.55E-07  8.79E-05  8.79E-05  9.51E-07  1.17E-04  8.78E-05  8.78E-05
 ene: -4.10E-01 -3.95E-01 -2.59E-01 -2.59E-01 -2.40E-01 -1.03E-01  1.59E-01  1.59E-01
     eigenvalues (hartree) for    8  bands
              after    2 non-SCF iterations with    4 CG line minimizations
 -4.0951E-01 -3.9503E-01 -2.5879E-01 -2.5879E-01 -2.4019E-01 -1.0254E-01
  1.5915E-01  1.5915E-01
 newocc : new Fermi energy is      -0.267763 , with nelect=      8.000000
  Number of bissection calls =  50
 newocc : computed new occ. numbers for occopt=    3 , spin-unpolarized case.
 2.000 2.000 2.000 1.238 1.238 0.280 0.000 0.000
 2.000 2.000 1.999 1.163 0.983 0.000 0.000 0.000
 2.000 1.998 1.997 1.997 1.950 0.774 0.000 0.000
 2.000 2.000 1.999 1.632 0.081 0.057 0.000 0.000
 2.000 2.000 2.000 0.861 0.861 0.000 0.000 0.000
 2.000 2.000 0.579 0.579 0.119 0.000 0.000 0.000
mkrho: echo density (plane-wave part only)
 Total charge density [el/Bohr^3]
,     Maximum=    6.2840E-01  at reduced coord.    0.8333    0.8333    0.9444
,     Minimum=    1.1997E-03  at reduced coord.    0.0000    0.0000    0.0000
,  Integrated=    8.0000E+00
 Total charge density [el/Bohr^3]
,     Maximum=    6.2840E-01  at reduced coord.    0.8333    0.8333    0.9444
,     Minimum=    1.1997E-03  at reduced coord.    0.0000    0.0000    0.0000
,  Integrated=    8.0000E+00
 ETOT  5  -24.661136542983    -3.126E-03 1.993E-04 4.985E-01
 scprqt: <Vxc>= -5.1593912E-01 hartree
 findmin : lambda_predict   5.0397E-01 etotal_predict  -2.4661696411E+01
 scfcge: actual     5-1-1   7.0000E-01 -2.466113654298E+01  2.8937E-01
 scfcge: predict            5.0397E-01 not close enough => continue minim.

 ITER STEP NUMBER     6
 vtorho : nnsclo_now=  1, note that nnsclo,dbl_nnsclo,istep=  0 0  6
 Non-SCF iterations; kpt #     1  , k= (  0.12500  0.12500  0.12500  ), band residuals:
 res:  3.98E-06  9.88E-06  9.79E-06  1.17E-06  1.17E-06  4.48E-06  1.08E-05  3.76E-05
 ene: -4.73E-01 -3.66E-01 -3.66E-01 -2.74E-01 -2.74E-01 -2.51E-01  3.51E-01  3.51E-01
     eigenvalues (hartree) for    8  bands
              after    2 non-SCF iterations with    4 CG line minimizations
 -4.7294E-01 -3.6572E-01 -3.6572E-01 -2.7448E-01 -2.7448E-01 -2.5138E-01
  3.5095E-01  3.5102E-01
 Non-SCF iterations; kpt #     2  , k= (  0.37500  0.12500  0.12500  ), band residuals:
 res:  1.65E-05  1.36E-06  1.92E-05  1.54E-08  2.91E-07  1.91E-05  1.32E-05  9.99E-05
 ene: -4.11E-01 -3.86E-01 -3.38E-01 -2.73E-01 -2.69E-01 -1.16E-01  1.24E-02  2.54E-01
     eigenvalues (hartree) for    8  bands
              after    2 non-SCF iterations with    4 CG line minimizations
 -4.1149E-01 -3.8635E-01 -3.3832E-01 -2.7311E-01 -2.6944E-01 -1.1628E-01
  1.2400E-02  2.5406E-01
 Non-SCF iterations; kpt #     3  , k= ( -0.12500  0.12500  0.12500  ), band residuals:
 res:  1.08E-06  3.78E-08  1.57E-07  7.80E-07  8.34E-06  9.85E-07  1.35E-05  3.09E-06
 ene: -5.50E-01 -3.42E-01 -3.35E-01 -3.35E-01 -3.06E-01 -2.65E-01  5.52E-01  6.07E-01
     eigenvalues (hartree) for    8  bands
              after    2 non-SCF iterations with    4 CG line minimizations
 -5.4983E-01 -3.4157E-01 -3.3506E-01 -3.3506E-01 -3.0588E-01 -2.6507E-01
  5.5250E-01  6.0725E-01
 Non-SCF iterations; kpt #     4  , k= ( -0.37500  0.37500  0.12500  ), band residuals:
 res:  1.17E-05  3.92E-06  1.51E-05  1.80E-06  1.01E-05  1.04E-06  1.28E-05  8.52E-05
 ene: -4.33E-01 -3.58E-01 -3.43E-01 -2.84E-01 -2.36E-01 -2.35E-01  1.32E-01  3.95E-01
     eigenvalues (hartree) for    8  bands
              after    2 non-SCF iterations with    4 CG line minimizations
 -4.3280E-01 -3.5827E-01 -3.4331E-01 -2.8427E-01 -2.3643E-01 -2.3498E-01
  1.3226E-01  3.9540E-01
 Non-SCF iterations; kpt #     5  , k= ( -0.37500 -0.37500  0.12500  ), band residuals:
 res:  1.45E-05  1.45E-05  6.90E-06  1.99E-06  1.99E-06  1.60E-05  1.60E-05  6.89E-06
 ene: -3.78E-01 -3.78E-01 -3.68E-01 -2.67E-01 -2.67E-01 -3.62E-03 -3.62E-03  6.65E-02
     eigenvalues (hartree) for    8  bands
              after    2 non-SCF iterations with    4 CG line minimizations
 -3.7850E-01 -3.7850E-01 -3.6832E-01 -2.6696E-01 -2.6696E-01 -3.6234E-03
 -3.6234E-03  6.6450E-02
 Non-SCF iterations; kpt #     6  , k= ( -0.37500  0.37500  0.37500  ), band residuals:
 res:  9.54E-06  1.80E-07  5.66E-06  5.66E-06  1.05E-08  9.53E-06  5.70E-06  5.70E-06
 ene: -4.08E-01 -3.95E-01 -2.61E-01 -2.61E-01 -2.43E-01 -9.94E-02  1.63E-01  1.63E-01
     eigenvalues (hartree) for    8  bands
              after    2 non-SCF iterations with    4 CG line minimizations
 -4.0820E-01 -3.9460E-01 -2.6053E-01 -2.6053E-01 -2.4265E-01 -9.9434E-02
  1.6299E-01  1.6299E-01
 newocc : new Fermi energy is      -0.269599 , with nelect=      8.000000
  Number of bissection calls =  50
 newocc : computed new occ. numbers for occopt=    3 , spin-unpolarized case.
 2.000 2.000 2.000 1.239 1.239 0.278 0.000 0.000
 2.000 2.000 1.998 1.174 0.992 0.000 0.000 0.000
 2.000 1.999 1.997 1.997 1.948 0.777 0.000 0.000
 2.000 2.000 1.999 1.625 0.070 0.061 0.000 0.000
 2.000 2.000 2.000 0.869 0.869 0.000 0.000 0.000
 2.000 2.000 0.575 0.575 0.126 0.000 0.000 0.000
mkrho: echo density (plane-wave part only)
 Total charge density [el/Bohr^3]
,     Maximum=    6.3554E-01  at reduced coord.    0.8333    0.8333    0.9444
,     Minimum=    1.1989E-03  at reduced coord.    0.0000    0.0000    0.0000
,  Integrated=    8.0000E+00
 Total charge density [el/Bohr^3]
,     Maximum=    6.3554E-01  at reduced coord.    0.8333    0.8333    0.9444
,     Minimum=    1.1989E-03  at reduced coord.    0.0000    0.0000    0.0000
,  Integrated=    8.0000E+00
 ETOT  6  -24.659430432671     1.706E-03 9.985E-05 2.159E+00
 scprqt: <Vxc>= -5.1459395E-01 hartree
 findmin : lambda_predict   8.9278E-01 etotal_predict  -2.4661693226E+01
 scfcge: actual     6-1-2   5.0397E-01 -2.465943043267E+01  1.2446E+00
 scfcge: predict            8.9278E-01 not close enough => continue minim.

 ITER STEP NUMBER     7
 vtorho : nnsclo_now=  1, note that nnsclo,dbl_nnsclo,istep=  0 0  7
 Non-SCF iterations; kpt #     1  , k= (  0.12500  0.12500  0.12500  ), band residuals:
 res:  1.67E-05  3.81E-05  3.81E-05  4.56E-06  4.53E-06  1.84E-05  4.19E-05  4.51E-05
 ene: -4.73E-01 -3.54E-01 -3.54E-01 -2.61E-01 -2.61E-01 -2.38E-01  3.51E-01  3.51E-01
     eigenvalues (hartree) for    8  bands
              after    2 non-SCF iterations with    4 CG line minimizations
 -4.7288E-01 -3.5373E-01 -3.5373E-01 -2.6068E-01 -2.6068E-01 -2.3776E-01
  3.5139E-01  3.5142E-01
 Non-SCF iterations; kpt #     2  , k= (  0.37500  0.12500  0.12500  ), band residuals:
 res:  6.52E-05  3.76E-06  7.54E-05  6.83E-08  8.71E-07  7.53E-05  5.19E-05  1.67E-05
 ene: -4.03E-01 -3.75E-01 -3.32E-01 -2.59E-01 -2.55E-01 -1.09E-01  1.92E-02  2.57E-01
     eigenvalues (hartree) for    8  bands
              after    2 non-SCF iterations with    4 CG line minimizations
 -4.0320E-01 -3.7491E-01 -3.3166E-01 -2.5893E-01 -2.5534E-01 -1.0940E-01
  1.9191E-02  2.5727E-01
 Non-SCF iterations; kpt #     3  , k= ( -0.12500  0.12500  0.12500  ), band residuals:
 res:  4.32E-06  5.81E-08  6.28E-07  2.98E-06  3.21E-05  3.77E-06  3.33E-05  9.84E-06
 ene: -5.51E-01 -3.28E-01 -3.22E-01 -3.22E-01 -2.93E-01 -2.51E-01  5.49E-01  6.08E-01
     eigenvalues (hartree) for    8  bands
              after    2 non-SCF iterations with    4 CG line minimizations
 -5.5072E-01 -3.2765E-01 -3.2176E-01 -3.2176E-01 -2.9304E-01 -2.5118E-01
  5.4869E-01  6.0843E-01
 Non-SCF iterations; kpt #     4  , k= ( -0.37500  0.37500  0.12500  ), band residuals:
 res:  4.72E-05  1.58E-05  5.91E-05  6.50E-06  4.22E-05  3.85E-06  5.02E-05  2.10E-05
 ene: -4.29E-01 -3.46E-01 -3.35E-01 -2.71E-01 -2.26E-01 -2.20E-01  1.37E-01  3.99E-01
     eigenvalues (hartree) for    8  bands
              after    2 non-SCF iterations with    4 CG line minimizations
 -4.2882E-01 -3.4572E-01 -3.3541E-01 -2.7099E-01 -2.2566E-01 -2.2002E-01
  1.3689E-01  3.9863E-01
 Non-SCF iterations; kpt #     5  , k= ( -0.37500 -0.37500  0.12500  ), band residuals:
 res:  5.63E-05  5.63E-05  2.74E-05  7.70E-06  7.70E-06  6.24E-05  6.24E-05  2.68E-05
 ene: -3.70E-01 -3.70E-01 -3.57E-01 -2.53E-01 -2.53E-01  1.00E-03  1.00E-03  7.16E-02
     eigenvalues (hartree) for    8  bands
              after    2 non-SCF iterations with    4 CG line minimizations
 -3.7022E-01 -3.7022E-01 -3.5696E-01 -2.5289E-01 -2.5289E-01  1.0046E-03
  1.0046E-03  7.1623E-02
 Non-SCF iterations; kpt #     6  , k= ( -0.37500  0.37500  0.37500  ), band residuals:
 res:  3.72E-05  6.33E-07  2.17E-05  2.17E-05  2.00E-08  3.71E-05  2.19E-05  2.19E-05
 ene: -4.01E-01 -3.85E-01 -2.47E-01 -2.47E-01 -2.28E-01 -9.54E-02  1.65E-01  1.65E-01
     eigenvalues (hartree) for    8  bands
              after    2 non-SCF iterations with    4 CG line minimizations
 -4.0077E-01 -3.8539E-01 -2.4699E-01 -2.4699E-01 -2.2767E-01 -9.5431E-02
  1.6549E-01  1.6549E-01
 newocc : new Fermi energy is      -0.255857 , with nelect=      8.000000
  Number of bissection calls =  50
 newocc : computed new occ. numbers for occopt=    3 , spin-unpolarized case.
 2.000 2.000 2.000 1.237 1.237 0.281 0.000 0.000
 2.000 2.000 1.999 1.152 0.974 0.000 0.000 0.000
 2.000 1.998 1.997 1.997 1.953 0.770 0.000 0.000
 2.000 2.000 1.999 1.639 0.093 0.054 0.000 0.000
 2.000 2.000 2.000 0.853 0.853 0.000 0.000 0.000
 2.000 2.000 0.583 0.583 0.113 0.000 0.000 0.000
mkrho: echo density (plane-wave part only)
 Total charge density [el/Bohr^3]
,     Maximum=    6.2229E-01  at reduced coord.    0.7778    0.8889    0.8889
,     Minimum=    1.1958E-03  at reduced coord.    0.0000    0.0000    0.0000
,  Integrated=    8.0000E+00
 Total charge density [el/Bohr^3]
,     Maximum=    6.2229E-01  at reduced coord.    0.7778    0.8889    0.8889
,     Minimum=    1.1958E-03  at reduced coord.    0.0000    0.0000    0.0000
,  Integrated=    8.0000E+00
 ETOT  7  -24.661693564309    -2.263E-03 7.544E-05 4.557E-02
 scprqt: <Vxc>= -5.1724131E-01 hartree
 findmin : lambda_predict   8.9248E-01 etotal_predict  -2.4661693566E+01
 scfcge: actual     7-1-3   8.9278E-01 -2.466169356431E+01  3.6446E-02
 scfcge: predict            8.9248E-01 suff. close => next line, ilinear= 0
 scfcge:
 scfcge: start      7-2-0   0.0000E+00 -2.466169356431E+01  3.6446E-02

 ITER STEP NUMBER     8
 vtorho : nnsclo_now=  1, note that nnsclo,dbl_nnsclo,istep=  0 0  8
 Non-SCF iterations; kpt #     1  , k= (  0.12500  0.12500  0.12500  ), band residuals:
 res:  2.44E-08  2.59E-08  2.79E-08  1.74E-08  1.79E-08  1.17E-08  2.26E-08  7.77E-06
 ene: -4.75E-01 -3.56E-01 -3.56E-01 -2.63E-01 -2.63E-01 -2.40E-01  3.49E-01  3.49E-01
     eigenvalues (hartree) for    8  bands
              after    2 non-SCF iterations with    4 CG line minimizations
 -4.7546E-01 -3.5630E-01 -3.5630E-01 -2.6282E-01 -2.6282E-01 -2.4026E-01
  3.4919E-01  3.4921E-01
 Non-SCF iterations; kpt #     2  , k= (  0.37500  0.12500  0.12500  ), band residuals:
 res:  6.11E-08  1.01E-08  6.41E-09  1.29E-08  4.37E-08  6.10E-09  2.52E-07  2.34E-05
 ene: -4.06E-01 -3.77E-01 -3.34E-01 -2.61E-01 -2.58E-01 -1.12E-01  1.66E-02  2.54E-01
     eigenvalues (hartree) for    8  bands
              after    2 non-SCF iterations with    4 CG line minimizations
 -4.0572E-01 -3.7749E-01 -3.3417E-01 -2.6101E-01 -2.5754E-01 -1.1176E-01
  1.6552E-02  2.5424E-01
 Non-SCF iterations; kpt #     3  , k= ( -0.12500  0.12500  0.12500  ), band residuals:
 res:  7.46E-08  1.11E-08  8.42E-09  1.20E-08  7.10E-08  7.89E-09  1.46E-07  3.57E-06
 ene: -5.53E-01 -3.30E-01 -3.24E-01 -3.24E-01 -2.95E-01 -2.53E-01  5.47E-01  6.06E-01
     eigenvalues (hartree) for    8  bands
              after    2 non-SCF iterations with    4 CG line minimizations
 -5.5330E-01 -3.3020E-01 -3.2435E-01 -3.2435E-01 -2.9516E-01 -2.5327E-01
  5.4699E-01  6.0560E-01
 Non-SCF iterations; kpt #     4  , k= ( -0.37500  0.37500  0.12500  ), band residuals:
 res:  7.55E-08  1.90E-08  4.03E-08  6.54E-08  5.00E-08  2.16E-08  6.25E-08  1.20E-06
 ene: -4.31E-01 -3.48E-01 -3.38E-01 -2.73E-01 -2.28E-01 -2.23E-01  1.34E-01  3.96E-01
     eigenvalues (hartree) for    8  bands
              after    2 non-SCF iterations with    4 CG line minimizations
 -4.3134E-01 -3.4831E-01 -3.3775E-01 -2.7333E-01 -2.2787E-01 -2.2254E-01
  1.3434E-01  3.9574E-01
 Non-SCF iterations; kpt #     5  , k= ( -0.37500 -0.37500  0.12500  ), band residuals:
 res:  4.40E-08  4.40E-08  3.14E-08  5.25E-08  5.25E-08  3.44E-08  3.44E-08  3.22E-08
 ene: -3.73E-01 -3.73E-01 -3.60E-01 -2.55E-01 -2.55E-01 -1.34E-03 -1.34E-03  6.87E-02
     eigenvalues (hartree) for    8  bands
              after    2 non-SCF iterations with    4 CG line minimizations
 -3.7252E-01 -3.7252E-01 -3.5957E-01 -2.5530E-01 -2.5530E-01 -1.3372E-03
 -1.3372E-03  6.8690E-02
 Non-SCF iterations; kpt #     6  , k= ( -0.37500  0.37500  0.37500  ), band residuals:
 res:  3.11E-08  7.41E-09  2.44E-08  2.44E-08  9.78E-10  4.32E-08  2.74E-08  2.76E-08
 ene: -4.03E-01 -3.88E-01 -2.50E-01 -2.50E-01 -2.30E-01 -9.80E-02  1.63E-01  1.63E-01
     eigenvalues (hartree) for    8  bands
              after    2 non-SCF iterations with    4 CG line minimizations
 -4.0304E-01 -3.8763E-01 -2.4953E-01 -2.4953E-01 -2.3018E-01 -9.7981E-02
  1.6274E-01  1.6274E-01
 newocc : new Fermi energy is      -0.258142 , with nelect=      8.000000
  Number of bissection calls =  50
 newocc : computed new occ. numbers for occopt=    3 , spin-unpolarized case.
 2.000 2.000 2.000 1.230 1.230 0.287 0.000 0.000
 2.000 2.000 1.999 1.142 0.970 0.000 0.000 0.000
 2.000 1.999 1.997 1.997 1.952 0.761 0.000 0.000
 2.000 2.000 1.999 1.641 0.092 0.055 0.000 0.000
 2.000 2.000 2.000 0.859 0.859 0.000 0.000 0.000
 2.000 2.000 0.594 0.594 0.115 0.000 0.000 0.000
mkrho: echo density (plane-wave part only)
 Total charge density [el/Bohr^3]
,     Maximum=    6.2204E-01  at reduced coord.    0.7778    0.8889    0.8889
,     Minimum=    1.1960E-03  at reduced coord.    0.0000    0.0000    0.0000
,  Integrated=    8.0000E+00
 Total charge density [el/Bohr^3]
,     Maximum=    6.2204E-01  at reduced coord.    0.7778    0.8889    0.8889
,     Minimum=    1.1960E-03  at reduced coord.    0.0000    0.0000    0.0000
,  Integrated=    8.0000E+00
 ETOT  8  -24.661705261715    -1.170E-05 2.342E-05 5.213E-03
 scprqt: <Vxc>= -5.1729837E-01 hartree
 nlinear, ilinear  0  0
 scfcge: actual     8-2-off 7.9054E-01 -2.466170526171E+01  3.6326E-03, end=1

 ITER STEP NUMBER     9
 vtorho : nnsclo_now=  1, note that nnsclo,dbl_nnsclo,istep=  0 0  9
 Non-SCF iterations; kpt #     1  , k= (  0.12500  0.12500  0.12500  ), band residuals:
 res:  1.83E-08  4.11E-08  4.10E-08  5.17E-09  5.21E-09  1.97E-08  4.52E-08  7.95E-07
 ene: -4.75E-01 -3.57E-01 -3.57E-01 -2.63E-01 -2.63E-01 -2.41E-01  3.49E-01  3.49E-01
     eigenvalues (hartree) for    8  bands
              after    2 non-SCF iterations with    4 CG line minimizations
 -4.7546E-01 -3.5671E-01 -3.5671E-01 -2.6326E-01 -2.6326E-01 -2.4071E-01
  3.4924E-01  3.4924E-01
 Non-SCF iterations; kpt #     2  , k= (  0.37500  0.12500  0.12500  ), band residuals:
 res:  7.34E-08  2.32E-09  9.03E-08  2.91E-10  8.30E-10  8.99E-08  6.40E-08  2.08E-07
 ene: -4.06E-01 -3.78E-01 -3.34E-01 -2.61E-01 -2.58E-01 -1.12E-01  1.63E-02  2.54E-01
     eigenvalues (hartree) for    8  bands
              after    2 non-SCF iterations with    4 CG line minimizations
 -4.0600E-01 -3.7788E-01 -3.3437E-01 -2.6146E-01 -2.5800E-01 -1.1198E-01
  1.6304E-02  2.5404E-01
 Non-SCF iterations; kpt #     3  , k= ( -0.12500  0.12500  0.12500  ), band residuals:
 res:  1.28E-08  5.23E-11  3.25E-10  1.54E-09  3.04E-08  3.89E-09  8.65E-08  2.88E-06
 ene: -5.53E-01 -3.31E-01 -3.25E-01 -3.25E-01 -2.96E-01 -2.54E-01  5.47E-01  6.05E-01
     eigenvalues (hartree) for    8  bands
              after    2 non-SCF iterations with    4 CG line minimizations
 -5.5327E-01 -3.3067E-01 -3.2481E-01 -3.2481E-01 -2.9556E-01 -2.5372E-01
  5.4726E-01  6.0550E-01
 Non-SCF iterations; kpt #     4  , k= ( -0.37500  0.37500  0.12500  ), band residuals:
 res:  4.68E-08  1.42E-08  6.95E-08  7.07E-09  4.20E-08  2.69E-09  5.86E-08  5.73E-07
 ene: -4.31E-01 -3.49E-01 -3.38E-01 -2.74E-01 -2.28E-01 -2.23E-01  1.34E-01  3.96E-01
     eigenvalues (hartree) for    8  bands
              after    2 non-SCF iterations with    4 CG line minimizations
 -4.3146E-01 -3.4874E-01 -3.3800E-01 -2.7376E-01 -2.2823E-01 -2.2303E-01
  1.3418E-01  3.9558E-01
 Non-SCF iterations; kpt #     5  , k= ( -0.37500 -0.37500  0.12500  ), band residuals:
 res:  6.55E-08  6.55E-08  2.40E-08  7.90E-09  7.90E-09  7.30E-08  7.30E-08  2.43E-08
 ene: -3.73E-01 -3.73E-01 -3.60E-01 -2.56E-01 -2.56E-01 -1.47E-03 -1.47E-03  6.85E-02
     eigenvalues (hartree) for    8  bands
              after    2 non-SCF iterations with    4 CG line minimizations
 -3.7278E-01 -3.7278E-01 -3.5996E-01 -2.5576E-01 -2.5576E-01 -1.4693E-03
 -1.4693E-03  6.8454E-02
 Non-SCF iterations; kpt #     6  , k= ( -0.37500  0.37500  0.37500  ), band residuals:
 res:  4.14E-08  3.35E-11  2.14E-08  2.14E-08  2.97E-11  4.17E-08  2.16E-08  2.17E-08
 ene: -4.03E-01 -3.88E-01 -2.50E-01 -2.50E-01 -2.31E-01 -9.81E-02  1.63E-01  1.63E-01
     eigenvalues (hartree) for    8  bands
              after    2 non-SCF iterations with    4 CG line minimizations
 -4.0327E-01 -3.8792E-01 -2.4999E-01 -2.4999E-01 -2.3068E-01 -9.8126E-02
  1.6263E-01  1.6263E-01
 newocc : new Fermi energy is      -0.258589 , with nelect=      8.000000
  Number of bissection calls =  50
 newocc : computed new occ. numbers for occopt=    3 , spin-unpolarized case.
 2.000 2.000 2.000 1.229 1.229 0.287 0.000 0.000
 2.000 2.000 1.999 1.143 0.970 0.000 0.000 0.000
 2.000 1.999 1.997 1.997 1.952 0.761 0.000 0.000
 2.000 2.000 1.999 1.640 0.092 0.056 0.000 0.000
 2.000 2.000 2.000 0.860 0.860 0.000 0.000 0.000
 2.000 2.000 0.595 0.595 0.116 0.000 0.000 0.000
mkrho: echo density (plane-wave part only)
 Total charge density [el/Bohr^3]
,     Maximum=    6.2238E-01  at reduced coord.    0.7778    0.8889    0.8889
,     Minimum=    1.1962E-03  at reduced coord.    0.0000    0.0000    0.0000
,  Integrated=    8.0000E+00
 Total charge density [el/Bohr^3]
,     Maximum=    6.2238E-01  at reduced coord.    0.7778    0.8889    0.8889
,     Minimum=    1.1962E-03  at reduced coord.    0.0000    0.0000    0.0000
,  Integrated=    8.0000E+00
 ETOT  9  -24.661707031497    -1.770E-06 2.884E-06 3.913E-04
 scprqt: <Vxc>= -5.1721493E-01 hartree
 nlinear, ilinear  0  0
  compute new search direction
 scfcge: actual     9-2-off 7.9054E-01 -2.466170703150E+01  3.1244E-04, end=2

 ITER STEP NUMBER    10
 vtorho : nnsclo_now=  1, note that nnsclo,dbl_nnsclo,istep=  0 0 10
 Non-SCF iterations; kpt #     1  , k= (  0.12500  0.12500  0.12500  ), band residuals:
 res:  4.41E-10  8.21E-10  8.21E-10  1.03E-10  1.03E-10  3.90E-10  8.90E-10  8.95E-07
 ene: -4.75E-01 -3.57E-01 -3.57E-01 -2.63E-01 -2.63E-01 -2.41E-01  3.49E-01  3.49E-01
     eigenvalues (hartree) for    8  bands
              after    2 non-SCF iterations with    4 CG line minimizations
 -4.7538E-01 -3.5658E-01 -3.5658E-01 -2.6312E-01 -2.6312E-01 -2.4057E-01
  3.4931E-01  3.4931E-01
 Non-SCF iterations; kpt #     2  , k= (  0.37500  0.12500  0.12500  ), band residuals:
 res:  1.45E-09  6.70E-11  1.79E-09  2.50E-11  1.71E-11  1.78E-09  1.37E-09  3.31E-06
 ene: -4.06E-01 -3.78E-01 -3.34E-01 -2.61E-01 -2.58E-01 -1.12E-01  1.64E-02  2.54E-01
     eigenvalues (hartree) for    8  bands
              after    2 non-SCF iterations with    4 CG line minimizations
 -4.0588E-01 -3.7775E-01 -3.3427E-01 -2.6132E-01 -2.5786E-01 -1.1187E-01
  1.6414E-02  2.5414E-01
 Non-SCF iterations; kpt #     3  , k= ( -0.12500  0.12500  0.12500  ), band residuals:
 res:  2.44E-10  9.05E-12  9.50E-12  2.75E-11  5.92E-10  8.14E-11  1.06E-08  2.73E-06
 ene: -5.53E-01 -3.31E-01 -3.25E-01 -3.25E-01 -2.95E-01 -2.54E-01  5.47E-01  6.06E-01
     eigenvalues (hartree) for    8  bands
              after    2 non-SCF iterations with    4 CG line minimizations
 -5.5320E-01 -3.3053E-01 -3.2467E-01 -3.2467E-01 -2.9543E-01 -2.5358E-01
  5.4730E-01  6.0557E-01
 Non-SCF iterations; kpt #     4  , k= ( -0.37500  0.37500  0.12500  ), band residuals:
 res:  9.24E-10  2.78E-10  1.37E-09  1.37E-10  8.26E-10  5.49E-11  1.10E-09  1.45E-07
 ene: -4.31E-01 -3.49E-01 -3.38E-01 -2.74E-01 -2.28E-01 -2.23E-01  1.34E-01  3.96E-01
     eigenvalues (hartree) for    8  bands
              after    2 non-SCF iterations with    4 CG line minimizations
 -4.3137E-01 -3.4860E-01 -3.3789E-01 -2.7363E-01 -2.2810E-01 -2.2289E-01
  1.3428E-01  3.9568E-01
 Non-SCF iterations; kpt #     5  , k= ( -0.37500 -0.37500  0.12500  ), band residuals:
 res:  1.29E-09  1.29E-09  4.70E-10  1.58E-10  1.58E-10  1.44E-09  1.44E-09  4.76E-10
 ene: -3.73E-01 -3.73E-01 -3.60E-01 -2.56E-01 -2.56E-01 -1.38E-03 -1.38E-03  6.86E-02
     eigenvalues (hartree) for    8  bands
              after    2 non-SCF iterations with    4 CG line minimizations
 -3.7267E-01 -3.7267E-01 -3.5983E-01 -2.5562E-01 -2.5562E-01 -1.3754E-03
 -1.3754E-03  6.8563E-02
 Non-SCF iterations; kpt #     6  , k= ( -0.37500  0.37500  0.37500  ), band residuals:
 res:  8.14E-10  2.56E-12  4.09E-10  4.09E-10  6.35E-13  8.18E-10  4.28E-10  4.23E-10
 ene: -4.03E-01 -3.88E-01 -2.50E-01 -2.50E-01 -2.31E-01 -9.80E-02  1.63E-01  1.63E-01
     eigenvalues (hartree) for    8  bands
              after    2 non-SCF iterations with    4 CG line minimizations
 -4.0316E-01 -3.8781E-01 -2.4985E-01 -2.4985E-01 -2.3054E-01 -9.8030E-02
  1.6272E-01  1.6272E-01
 newocc : new Fermi energy is      -0.258451 , with nelect=      8.000000
  Number of bissection calls =  50
 newocc : computed new occ. numbers for occopt=    3 , spin-unpolarized case.
 2.000 2.000 2.000 1.229 1.229 0.287 0.000 0.000
 2.000 2.000 1.999 1.143 0.970 0.000 0.000 0.000
 2.000 1.999 1.997 1.997 1.952 0.761 0.000 0.000
 2.000 2.000 1.999 1.640 0.092 0.056 0.000 0.000
 2.000 2.000 2.000 0.859 0.859 0.000 0.000 0.000
 2.000 2.000 0.595 0.595 0.116 0.000 0.000 0.000
mkrho: echo density (plane-wave part only)
 Total charge density [el/Bohr^3]
,     Maximum=    6.2233E-01  at reduced coord.    0.7778    0.8889    0.8889
,     Minimum=    1.1961E-03  at reduced coord.    0.0000    0.0000    0.0000
,  Integrated=    8.0000E+00
 Total charge density [el/Bohr^3]
,     Maximum=    6.2233E-01  at reduced coord.    0.7778    0.8889    0.8889
,     Minimum=    1.1961E-03  at reduced coord.    0.0000    0.0000    0.0000
,  Integrated=    8.0000E+00
 ETOT 10  -24.661707080127    -4.863E-08 3.308E-06 5.767E-04
 scprqt: <Vxc>= -5.1722669E-01 hartree
 findmin : lambda_predict   6.7960E-01 etotal_predict  -2.4661707080E+01
 scfcge: actual    10-2-1   6.7938E-01 -2.466170708013E+01  4.6543E-04
 scfcge: predict            6.7960E-01 suff. close => next line, ilinear= 1
 scfcge:
 scfcge: start     10-3-0   0.0000E+00 -2.466170708013E+01  4.6543E-04

 ITER STEP NUMBER    11
 vtorho : nnsclo_now=  1, note that nnsclo,dbl_nnsclo,istep=  0 0 11
 Non-SCF iterations; kpt #     1  , k= (  0.12500  0.12500  0.12500  ), band residuals:
 res:  4.69E-10  1.78E-09  1.78E-09  1.96E-10  1.94E-10  6.40E-10  2.02E-09  1.48E-07
 ene: -4.75E-01 -3.57E-01 -3.57E-01 -2.63E-01 -2.63E-01 -2.41E-01  3.49E-01  3.49E-01
     eigenvalues (hartree) for    8  bands
              after    2 non-SCF iterations with    4 CG line minimizations
 -4.7539E-01 -3.5653E-01 -3.5653E-01 -2.6304E-01 -2.6304E-01 -2.4050E-01
  3.4935E-01  3.4935E-01
 Non-SCF iterations; kpt #     2  , k= (  0.37500  0.12500  0.12500  ), band residuals:
 res:  2.60E-09  5.79E-10  1.56E-09  1.39E-10  3.34E-10  1.64E-09  6.09E-09  3.18E-08
 ene: -4.06E-01 -3.78E-01 -3.34E-01 -2.61E-01 -2.58E-01 -1.12E-01  1.64E-02  2.54E-01
     eigenvalues (hartree) for    8  bands
              after    2 non-SCF iterations with    4 CG line minimizations
 -4.0585E-01 -3.7771E-01 -3.3424E-01 -2.6124E-01 -2.5778E-01 -1.1182E-01
  1.6427E-02  2.5408E-01
 Non-SCF iterations; kpt #     3  , k= ( -0.12500  0.12500  0.12500  ), band residuals:
 res:  7.76E-10  1.01E-10  2.28E-10  3.25E-10  2.05E-09  2.31E-10  2.44E-09  1.14E-06
 ene: -5.53E-01 -3.30E-01 -3.25E-01 -3.25E-01 -2.95E-01 -2.53E-01  5.47E-01  6.06E-01
     eigenvalues (hartree) for    8  bands
              after    2 non-SCF iterations with    4 CG line minimizations
 -5.5321E-01 -3.3047E-01 -3.2462E-01 -3.2462E-01 -2.9535E-01 -2.5350E-01
  5.4739E-01  6.0553E-01
 Non-SCF iterations; kpt #     4  , k= ( -0.37500  0.37500  0.12500  ), band residuals:
 res:  2.44E-09  1.24E-09  1.57E-09  8.19E-10  1.47E-09  7.10E-10  3.00E-09  6.46E-08
 ene: -4.31E-01 -3.49E-01 -3.38E-01 -2.74E-01 -2.28E-01 -2.23E-01  1.34E-01  3.96E-01
     eigenvalues (hartree) for    8  bands
              after    2 non-SCF iterations with    4 CG line minimizations
 -4.3136E-01 -3.4855E-01 -3.3785E-01 -2.7356E-01 -2.2804E-01 -2.2282E-01
  1.3429E-01  3.9565E-01
 Non-SCF iterations; kpt #     5  , k= ( -0.37500 -0.37500  0.12500  ), band residuals:
 res:  1.68E-09  1.68E-09  2.21E-09  8.62E-10  8.62E-10  1.93E-09  1.93E-09  2.22E-09
 ene: -3.73E-01 -3.73E-01 -3.60E-01 -2.56E-01 -2.56E-01 -1.34E-03 -1.34E-03  6.85E-02
     eigenvalues (hartree) for    8  bands
              after    2 non-SCF iterations with    4 CG line minimizations
 -3.7262E-01 -3.7262E-01 -3.5979E-01 -2.5555E-01 -2.5555E-01 -1.3382E-03
 -1.3382E-03  6.8531E-02
 Non-SCF iterations; kpt #     6  , k= ( -0.37500  0.37500  0.37500  ), band residuals:
 res:  1.28E-09  6.39E-12  1.85E-09  1.85E-09  1.68E-11  1.36E-09  1.75E-09  1.75E-09
 ene: -4.03E-01 -3.88E-01 -2.50E-01 -2.50E-01 -2.30E-01 -9.80E-02  1.63E-01  1.63E-01
     eigenvalues (hartree) for    8  bands
              after    2 non-SCF iterations with    4 CG line minimizations
 -4.0312E-01 -3.8775E-01 -2.4979E-01 -2.4979E-01 -2.3046E-01 -9.8027E-02
  1.6270E-01  1.6270E-01
 newocc : new Fermi energy is      -0.258378 , with nelect=      8.000000
  Number of bissection calls =  50
 newocc : computed new occ. numbers for occopt=    3 , spin-unpolarized case.
 2.000 2.000 2.000 1.229 1.229 0.287 0.000 0.000
 2.000 2.000 1.999 1.142 0.970 0.000 0.000 0.000
 2.000 1.999 1.997 1.997 1.952 0.761 0.000 0.000
 2.000 2.000 1.999 1.641 0.092 0.056 0.000 0.000
 2.000 2.000 2.000 0.860 0.860 0.000 0.000 0.000
 2.000 2.000 0.595 0.595 0.116 0.000 0.000 0.000
mkrho: echo density (plane-wave part only)
 Total charge density [el/Bohr^3]
,     Maximum=    6.2222E-01  at reduced coord.    0.7778    0.8889    0.8889
,     Minimum=    1.1962E-03  at reduced coord.    0.0000    0.0000    0.0000
,  Integrated=    8.0000E+00
 Total charge density [el/Bohr^3]
,     Maximum=    6.2222E-01  at reduced coord.    0.7778    0.8889    0.8889
,     Minimum=    1.1962E-03  at reduced coord.    0.0000    0.0000    0.0000
,  Integrated=    8.0000E+00
 ETOT 11  -24.661707223620    -1.435E-07 1.139E-06 9.854E-05
 scprqt: <Vxc>= -5.1724263E-01 hartree
 nlinear, ilinear  1  1
  compute new search direction
  energy CG update : after 2D interpolation,
     computation in the next plane

 scfcge: actual    11-3-off 7.5160E-01 -2.466170722362E+01  6.5974E-05, end=4
 scfcge:

 ITER STEP NUMBER    12
 vtorho : nnsclo_now=  1, note that nnsclo,dbl_nnsclo,istep=  0 0 12
 Non-SCF iterations; kpt #     1  , k= (  0.12500  0.12500  0.12500  ), band residuals:
 res:  4.13E-10  5.82E-10  5.82E-10  1.07E-10  1.08E-10  3.06E-10  6.76E-10  1.96E-07
 ene: -4.75E-01 -3.57E-01 -3.57E-01 -2.63E-01 -2.63E-01 -2.41E-01  3.49E-01  3.49E-01
     eigenvalues (hartree) for    8  bands
              after    2 non-SCF iterations with    4 CG line minimizations
 -4.7540E-01 -3.5659E-01 -3.5659E-01 -2.6311E-01 -2.6311E-01 -2.4057E-01
  3.4936E-01  3.4936E-01
 Non-SCF iterations; kpt #     2  , k= (  0.37500  0.12500  0.12500  ), band residuals:
 res:  1.19E-09  4.41E-11  1.45E-09  4.24E-12  7.64E-12  1.44E-09  1.18E-09  3.92E-07
 ene: -4.06E-01 -3.78E-01 -3.34E-01 -2.61E-01 -2.58E-01 -1.12E-01  1.64E-02  2.54E-01
     eigenvalues (hartree) for    8  bands
              after    2 non-SCF iterations with    4 CG line minimizations
 -4.0590E-01 -3.7776E-01 -3.3427E-01 -2.6130E-01 -2.5785E-01 -1.1185E-01
  1.6387E-02  2.5404E-01
 Non-SCF iterations; kpt #     3  , k= ( -0.12500  0.12500  0.12500  ), band residuals:
 res:  3.62E-10  6.28E-12  7.75E-12  1.44E-11  4.80E-10  7.37E-11  1.24E-09  2.80E-06
 ene: -5.53E-01 -3.31E-01 -3.25E-01 -3.25E-01 -2.95E-01 -2.54E-01  5.47E-01  6.06E-01
     eigenvalues (hartree) for    8  bands
              after    2 non-SCF iterations with    4 CG line minimizations
 -5.5321E-01 -3.3054E-01 -3.2468E-01 -3.2468E-01 -2.9541E-01 -2.5356E-01
  5.4743E-01  6.0550E-01
 Non-SCF iterations; kpt #     4  , k= ( -0.37500  0.37500  0.12500  ), band residuals:
 res:  7.15E-10  1.55E-10  1.18E-09  1.10E-10  7.27E-10  2.14E-11  9.57E-10  3.00E-09
 ene: -4.31E-01 -3.49E-01 -3.38E-01 -2.74E-01 -2.28E-01 -2.23E-01  1.34E-01  3.96E-01
     eigenvalues (hartree) for    8  bands
              after    2 non-SCF iterations with    4 CG line minimizations
 -4.3138E-01 -3.4862E-01 -3.3788E-01 -2.7362E-01 -2.2809E-01 -2.2289E-01
  1.3426E-01  3.9561E-01
 Non-SCF iterations; kpt #     5  , k= ( -0.37500 -0.37500  0.12500  ), band residuals:
 res:  1.11E-09  1.11E-09  2.62E-10  9.40E-11  9.40E-11  1.21E-09  1.21E-09  2.74E-10
 ene: -3.73E-01 -3.73E-01 -3.60E-01 -2.56E-01 -2.56E-01 -1.36E-03 -1.36E-03  6.85E-02
     eigenvalues (hartree) for    8  bands
              after    2 non-SCF iterations with    4 CG line minimizations
 -3.7266E-01 -3.7266E-01 -3.5985E-01 -2.5562E-01 -2.5562E-01 -1.3600E-03
 -1.3600E-03  6.8487E-02
 Non-SCF iterations; kpt #     6  , k= ( -0.37500  0.37500  0.37500  ), band residuals:
 res:  7.07E-10  1.38E-12  2.32E-10  2.32E-10  2.10E-12  7.35E-10  2.52E-10  2.53E-10
 ene: -4.03E-01 -3.88E-01 -2.50E-01 -2.50E-01 -2.31E-01 -9.81E-02  1.63E-01  1.63E-01
     eigenvalues (hartree) for    8  bands
              after    2 non-SCF iterations with    4 CG line minimizations
 -4.0315E-01 -3.8780E-01 -2.4985E-01 -2.4985E-01 -2.3053E-01 -9.8056E-02
  1.6267E-01  1.6267E-01
 newocc : new Fermi energy is      -0.258442 , with nelect=      8.000000
  Number of bissection calls =  50
 newocc : computed new occ. numbers for occopt=    3 , spin-unpolarized case.
 2.000 2.000 2.000 1.229 1.229 0.287 0.000 0.000
 2.000 2.000 1.999 1.142 0.970 0.000 0.000 0.000
 2.000 1.999 1.997 1.997 1.952 0.761 0.000 0.000
 2.000 2.000 1.999 1.641 0.092 0.056 0.000 0.000
 2.000 2.000 2.000 0.860 0.860 0.000 0.000 0.000
 2.000 2.000 0.595 0.595 0.116 0.000 0.000 0.000
mkrho: echo density (plane-wave part only)
 Total charge density [el/Bohr^3]
,     Maximum=    6.2226E-01  at reduced coord.    0.7778    0.8889    0.8889
,     Minimum=    1.1962E-03  at reduced coord.    0.0000    0.0000    0.0000
,  Integrated=    8.0000E+00
 Total charge density [el/Bohr^3]
,     Maximum=    6.2226E-01  at reduced coord.    0.7778    0.8889    0.8889
,     Minimum=    1.1962E-03  at reduced coord.    0.0000    0.0000    0.0000
,  Integrated=    8.0000E+00
 ETOT 12  -24.661707267515    -4.389E-08 2.803E-06 1.082E-07
 scprqt: <Vxc>= -5.1723223E-01 hartree
 nlinear, ilinear  1  0
 scfcge: actual    12-4-off 7.5160E-01 -2.466170726752E+01  8.7034E-08, end=1

 ITER STEP NUMBER    13
 vtorho : nnsclo_now=  1, note that nnsclo,dbl_nnsclo,istep=  0 0 13
 Non-SCF iterations; kpt #     1  , k= (  0.12500  0.12500  0.12500  ), band residuals:
 res:  6.28E-14  8.61E-15  8.54E-15  1.22E-13  1.22E-13  7.64E-14  1.74E-13  3.08E-08
 ene: -4.75E-01 -3.57E-01 -3.57E-01 -2.63E-01 -2.63E-01 -2.41E-01  3.49E-01  3.49E-01
     eigenvalues (hartree) for    8  bands
              after    2 non-SCF iterations with    4 CG line minimizations
 -4.7539E-01 -3.5658E-01 -3.5658E-01 -2.6310E-01 -2.6310E-01 -2.4056E-01
  3.4937E-01  3.4937E-01
 Non-SCF iterations; kpt #     2  , k= (  0.37500  0.12500  0.12500  ), band residuals:
 res:  7.00E-14  9.42E-15  2.16E-14  3.08E-15  1.35E-13  4.30E-14  3.83E-13  7.61E-09
 ene: -4.06E-01 -3.78E-01 -3.34E-01 -2.61E-01 -2.58E-01 -1.12E-01  1.64E-02  2.54E-01
     eigenvalues (hartree) for    8  bands
              after    2 non-SCF iterations with    4 CG line minimizations
 -4.0588E-01 -3.7775E-01 -3.3426E-01 -2.6129E-01 -2.5784E-01 -1.1184E-01
  1.6397E-02  2.5405E-01
 Non-SCF iterations; kpt #     3  , k= ( -0.12500  0.12500  0.12500  ), band residuals:
 res:  9.75E-14  2.74E-14  4.79E-15  1.12E-14  2.37E-13  7.18E-14  1.91E-11  1.21E-06
 ene: -5.53E-01 -3.31E-01 -3.25E-01 -3.25E-01 -2.95E-01 -2.54E-01  5.47E-01  6.06E-01
     eigenvalues (hartree) for    8  bands
              after    2 non-SCF iterations with    4 CG line minimizations
 -5.5320E-01 -3.3053E-01 -3.2467E-01 -3.2467E-01 -2.9540E-01 -2.5355E-01
  5.4744E-01  6.0550E-01
 Non-SCF iterations; kpt #     4  , k= ( -0.37500  0.37500  0.12500  ), band residuals:
 res:  5.57E-14  5.45E-14  9.43E-14  2.51E-13  2.72E-13  7.70E-14  1.59E-12  8.62E-09
 ene: -4.31E-01 -3.49E-01 -3.38E-01 -2.74E-01 -2.28E-01 -2.23E-01  1.34E-01  3.96E-01
     eigenvalues (hartree) for    8  bands
              after    2 non-SCF iterations with    4 CG line minimizations
 -4.3137E-01 -3.4860E-01 -3.3787E-01 -2.7361E-01 -2.2808E-01 -2.2288E-01
  1.3427E-01  3.9562E-01
 Non-SCF iterations; kpt #     5  , k= ( -0.37500 -0.37500  0.12500  ), band residuals:
 res:  1.10E-13  1.10E-13  7.23E-14  2.02E-13  2.02E-13  2.12E-13  2.12E-13  7.11E-14
 ene: -3.73E-01 -3.73E-01 -3.60E-01 -2.56E-01 -2.56E-01 -1.35E-03 -1.35E-03  6.85E-02
     eigenvalues (hartree) for    8  bands
              after    2 non-SCF iterations with    4 CG line minimizations
 -3.7265E-01 -3.7265E-01 -3.5984E-01 -2.5561E-01 -2.5561E-01 -1.3497E-03
 -1.3497E-03  6.8497E-02
 Non-SCF iterations; kpt #     6  , k= ( -0.37500  0.37500  0.37500  ), band residuals:
 res:  8.22E-14  1.81E-14  1.10E-13  1.09E-13  2.56E-15  7.86E-14  1.19E-13  1.50E-13
 ene: -4.03E-01 -3.88E-01 -2.50E-01 -2.50E-01 -2.31E-01 -9.80E-02  1.63E-01  1.63E-01
     eigenvalues (hartree) for    8  bands
              after    2 non-SCF iterations with    4 CG line minimizations
 -4.0314E-01 -3.8779E-01 -2.4984E-01 -2.4984E-01 -2.3052E-01 -9.8046E-02
  1.6268E-01  1.6268E-01
 newocc : new Fermi energy is      -0.258431 , with nelect=      8.000000
  Number of bissection calls =  50
 newocc : computed new occ. numbers for occopt=    3 , spin-unpolarized case.
 2.000 2.000 2.000 1.229 1.229 0.287 0.000 0.000
 2.000 2.000 1.999 1.142 0.970 0.000 0.000 0.000
 2.000 1.999 1.997 1.997 1.952 0.761 0.000 0.000
 2.000 2.000 1.999 1.641 0.092 0.056 0.000 0.000
 2.000 2.000 2.000 0.860 0.860 0.000 0.000 0.000
 2.000 2.000 0.595 0.595 0.116 0.000 0.000 0.000
mkrho: echo density (plane-wave part only)
 Total charge density [el/Bohr^3]
,     Maximum=    6.2226E-01  at reduced coord.    0.7778    0.8889    0.8889
,     Minimum=    1.1962E-03  at reduced coord.    0.0000    0.0000    0.0000
,  Integrated=    8.0000E+00
 Total charge density [el/Bohr^3]
,     Maximum=    6.2226E-01  at reduced coord.    0.7778    0.8889    0.8889
,     Minimum=    1.1962E-03  at reduced coord.    0.0000    0.0000    0.0000
,  Integrated=    8.0000E+00
 ETOT 13  -24.661707267542    -2.658E-11 1.211E-06 1.200E-08
 scprqt: <Vxc>= -5.1723217E-01 hartree
 nlinear, ilinear  1  0
 scfcge: actual    13-4-off 7.5160E-01 -2.466170726754E+01  9.5703E-09, end=1

 ITER STEP NUMBER    14
 vtorho : nnsclo_now=  1, note that nnsclo,dbl_nnsclo,istep=  0 0 14
 Non-SCF iterations; kpt #     1  , k= (  0.12500  0.12500  0.12500  ), band residuals:
 res:  1.03E-15  5.27E-15  5.26E-15  6.30E-15  6.31E-15  2.71E-15  1.14E-14  3.78E-08
 ene: -4.75E-01 -3.57E-01 -3.57E-01 -2.63E-01 -2.63E-01 -2.41E-01  3.49E-01  3.49E-01
     eigenvalues (hartree) for    8  bands
              after    2 non-SCF iterations with    4 CG line minimizations
 -4.7539E-01 -3.5658E-01 -3.5658E-01 -2.6310E-01 -2.6310E-01 -2.4056E-01
  3.4937E-01  3.4937E-01
 Non-SCF iterations; kpt #     2  , k= (  0.37500  0.12500  0.12500  ), band residuals:
 res:  1.32E-14  2.86E-15  4.92E-15  1.61E-16  9.53E-15  2.90E-15  5.86E-14  9.44E-08
 ene: -4.06E-01 -3.78E-01 -3.34E-01 -2.61E-01 -2.58E-01 -1.12E-01  1.64E-02  2.54E-01
     eigenvalues (hartree) for    8  bands
              after    2 non-SCF iterations with    4 CG line minimizations
 -4.0588E-01 -3.7775E-01 -3.3426E-01 -2.6129E-01 -2.5784E-01 -1.1184E-01
  1.6397E-02  2.5405E-01
 Non-SCF iterations; kpt #     3  , k= ( -0.12500  0.12500  0.12500  ), band residuals:
 res:  1.36E-14  3.27E-16  2.28E-15  3.16E-15  6.83E-15  4.20E-15  1.24E-11  2.53E-06
 ene: -5.53E-01 -3.31E-01 -3.25E-01 -3.25E-01 -2.95E-01 -2.54E-01  5.47E-01  6.05E-01
     eigenvalues (hartree) for    8  bands
              after    2 non-SCF iterations with    4 CG line minimizations
 -5.5320E-01 -3.3053E-01 -3.2467E-01 -3.2467E-01 -2.9540E-01 -2.5355E-01
  5.4744E-01  6.0550E-01
 Non-SCF iterations; kpt #     4  , k= ( -0.37500  0.37500  0.12500  ), band residuals:
 res:  1.26E-14  1.49E-14  7.20E-16  1.73E-14  3.41E-15  1.06E-14  3.29E-14  1.80E-10
 ene: -4.31E-01 -3.49E-01 -3.38E-01 -2.74E-01 -2.28E-01 -2.23E-01  1.34E-01  3.96E-01
     eigenvalues (hartree) for    8  bands
              after    2 non-SCF iterations with    4 CG line minimizations
 -4.3137E-01 -3.4860E-01 -3.3787E-01 -2.7361E-01 -2.2808E-01 -2.2288E-01
  1.3427E-01  3.9562E-01
 Non-SCF iterations; kpt #     5  , k= ( -0.37500 -0.37500  0.12500  ), band residuals:
 res:  5.22E-16  5.22E-16  1.95E-14  1.43E-14  1.43E-14  1.48E-14  1.48E-14  1.81E-14
 ene: -3.73E-01 -3.73E-01 -3.60E-01 -2.56E-01 -2.56E-01 -1.35E-03 -1.35E-03  6.85E-02
     eigenvalues (hartree) for    8  bands
              after    2 non-SCF iterations with    4 CG line minimizations
 -3.7265E-01 -3.7265E-01 -3.5984E-01 -2.5561E-01 -2.5561E-01 -1.3496E-03
 -1.3496E-03  6.8497E-02
 Non-SCF iterations; kpt #     6  , k= ( -0.37500  0.37500  0.37500  ), band residuals:
[...]
     eigenvalues (hartree) for    8  bands
              after    2 non-SCF iterations with    4 CG line minimizations
 -5.6028E-01 -3.6286E-01 -3.5596E-01 -3.5596E-01 -3.3680E-01 -2.9738E-01
  5.4030E-01  5.9433E-01
 Non-SCF iterations; kpt #     4  , k= ( -0.37500  0.37500  0.12500  ), band residuals:
 res:  1.09E-15  3.38E-16  1.21E-15  1.50E-16  1.04E-15  7.78E-17  1.10E-15  6.61E-16
 ene: -4.49E-01 -3.79E-01 -3.66E-01 -3.11E-01 -2.62E-01 -2.58E-01  1.17E-01  3.83E-01
     eigenvalues (hartree) for    8  bands
              after    2 non-SCF iterations with    4 CG line minimizations
 -4.4902E-01 -3.7859E-01 -3.6635E-01 -3.1080E-01 -2.6210E-01 -2.5774E-01
  1.1693E-01  3.8343E-01
 Non-SCF iterations; kpt #     5  , k= ( -0.37500 -0.37500  0.12500  ), band residuals:
 res:  1.19E-15  1.19E-15  5.88E-16  1.91E-16  1.91E-16  1.35E-15  1.35E-15  5.87E-16
 ene: -4.02E-01 -4.02E-01 -3.88E-01 -2.91E-01 -2.91E-01 -2.02E-02 -2.02E-02  5.27E-02
     eigenvalues (hartree) for    8  bands
              after    2 non-SCF iterations with    4 CG line minimizations
 -4.0239E-01 -4.0239E-01 -3.8775E-01 -2.9110E-01 -2.9110E-01 -2.0169E-02
 -2.0169E-02  5.2676E-02
 Non-SCF iterations; kpt #     6  , k= ( -0.37500  0.37500  0.37500  ), band residuals:
 res:  7.89E-16  2.95E-17  4.35E-16  4.35E-16  2.04E-18  7.82E-16  4.27E-16  4.27E-16
 ene: -4.32E-01 -4.21E-01 -2.82E-01 -2.82E-01 -2.65E-01 -1.15E-01  1.51E-01  1.51E-01
     eigenvalues (hartree) for    8  bands
              after    2 non-SCF iterations with    4 CG line minimizations
 -4.3218E-01 -4.2089E-01 -2.8211E-01 -2.8211E-01 -2.6539E-01 -1.1521E-01
  1.5139E-01  1.5139E-01
 Non-SCF iterations; kpt #     1  , k= (  0.12500  0.12500  0.12500  ), band residuals:
 res:  8.50E-16  3.63E-15  3.63E-15  7.61E-16  7.61E-16  1.08E-15  3.89E-13  2.64E-13
 ene: -4.66E-01 -3.24E-01 -3.24E-01 -2.18E-01 -2.18E-01 -2.04E-01  3.63E-01  3.63E-01
     eigenvalues (hartree) for    8  bands
              after    2 non-SCF iterations with    4 CG line minimizations
 -4.6638E-01 -3.2383E-01 -3.2383E-01 -2.1767E-01 -2.1767E-01 -2.0371E-01
  3.6261E-01  3.6261E-01
 Non-SCF iterations; kpt #     2  , k= (  0.37500  0.12500  0.12500  ), band residuals:
 res:  5.96E-15  5.02E-16  5.38E-15  6.97E-18  3.10E-16  5.38E-15  4.68E-15  3.73E-06
 ene: -3.80E-01 -3.47E-01 -3.13E-01 -2.14E-01 -2.13E-01 -8.57E-02  4.00E-02  2.68E-01
     eigenvalues (hartree) for    8  bands
              after    2 non-SCF iterations with    4 CG line minimizations
 -3.8007E-01 -3.4663E-01 -3.1337E-01 -2.1419E-01 -2.1297E-01 -8.5714E-02
  4.0035E-02  2.6799E-01
 Non-SCF iterations; kpt #     3  , k= ( -0.12500  0.12500  0.12500  ), band residuals:
 res:  1.99E-16  5.78E-18  5.77E-17  1.13E-16  4.66E-15  4.62E-16  4.67E-15  9.20E-07
 ene: -5.46E-01 -2.94E-01 -2.90E-01 -2.90E-01 -2.52E-01 -2.07E-01  5.55E-01  6.17E-01
     eigenvalues (hartree) for    8  bands
              after    2 non-SCF iterations with    4 CG line minimizations
 -5.4570E-01 -2.9410E-01 -2.8953E-01 -2.8953E-01 -2.5191E-01 -2.0706E-01
  5.5508E-01  6.1696E-01
 Non-SCF iterations; kpt #     4  , k= ( -0.37500  0.37500  0.12500  ), band residuals:
 res:  3.85E-15  1.56E-15  6.45E-15  6.12E-16  3.49E-15  4.60E-16  5.05E-15  1.09E-13
 ene: -4.15E-01 -3.15E-01 -3.10E-01 -2.33E-01 -1.88E-01 -1.84E-01  1.54E-01  4.10E-01
     eigenvalues (hartree) for    8  bands
              after    2 non-SCF iterations with    4 CG line minimizations
 -4.1468E-01 -3.1507E-01 -3.0952E-01 -2.3338E-01 -1.8841E-01 -1.8354E-01
  1.5424E-01  4.0953E-01
 Non-SCF iterations; kpt #     5  , k= ( -0.37500 -0.37500  0.12500  ), band residuals:
 res:  6.83E-15  6.83E-15  2.65E-15  6.98E-16  6.98E-16  6.56E-15  6.56E-15  2.64E-15
 ene: -3.43E-01 -3.43E-01 -3.29E-01 -2.16E-01 -2.16E-01  2.09E-02  2.09E-02  8.66E-02
     eigenvalues (hartree) for    8  bands
              after    2 non-SCF iterations with    4 CG line minimizations
 -3.4311E-01 -3.4311E-01 -3.2904E-01 -2.1595E-01 -2.1595E-01  2.0855E-02
  2.0855E-02  8.6574E-02
 Non-SCF iterations; kpt #     6  , k= ( -0.37500  0.37500  0.37500  ), band residuals:
 res:  4.95E-15  4.17E-17  2.37E-15  2.37E-15  4.34E-18  4.98E-15  2.37E-15  2.37E-15
 ene: -3.75E-01 -3.54E-01 -2.14E-01 -2.14E-01 -1.91E-01 -7.82E-02  1.76E-01  1.76E-01
     eigenvalues (hartree) for    8  bands
              after    2 non-SCF iterations with    4 CG line minimizations
 -3.7452E-01 -3.5391E-01 -2.1390E-01 -2.1390E-01 -1.9116E-01 -7.8155E-02
  1.7586E-01  1.7586E-01
 newocc : new Fermi energy is      -0.264705 , with nelect=      8.000000
  Number of bissection calls =  50
 newocc : computed new occupation numbers for occopt=    3
  (1) spin up   values
 1.000 1.000 1.000 0.984 0.984 0.695 0.000 0.000
 1.000 1.000 1.000 0.984 0.970 0.000 0.000 0.000
 1.000 1.000 1.000 1.000 0.999 0.963 0.000 0.000
 1.000 1.000 1.000 0.990 0.435 0.333 0.000 0.000
 1.000 1.000 1.000 0.933 0.933 0.000 0.000 0.000
 1.000 1.000 0.851 0.851 0.517 0.000 0.000 0.000
  (2) spin down values
 1.000 0.997 0.997 0.009 0.009 0.002 0.000 0.000
 1.000 1.000 0.992 0.006 0.006 0.000 0.000 0.000
 1.000 0.950 0.923 0.923 0.218 0.003 0.000 0.000
 1.000 0.994 0.989 0.042 0.000 0.000 0.000 0.000
 1.000 1.000 0.998 0.008 0.008 0.000 0.000 0.000
 1.000 1.000 0.006 0.006 0.001 0.000 0.000 0.000
mkrho: echo density (plane-wave part only)
 Total charge density [el/Bohr^3]
,     Maximum=    6.3401E-01  at reduced coord.    0.8333    0.8333    0.8333
,     Minimum=    1.2373E-03  at reduced coord.    0.0000    0.0000    0.0000
,  Integrated=    8.0000E+00
 Spin up density      [el/Bohr^3]
,     Maximum=    4.5297E-01  at reduced coord.    0.0000    0.8333    0.8333
,     Minimum=    6.5629E-04  at reduced coord.    0.0000    0.0000    0.0000
,  Integrated=    4.9837E+00
 Spin down density    [el/Bohr^3]
,     Maximum=    2.3449E-01  at reduced coord.    0.8333    0.8333    0.8333
,     Minimum=    5.8096E-04  at reduced coord.    0.0000    0.0000    0.0000
,  Integrated=    3.0163E+00
 Magnetization (spin up - spin down) [el/Bohr^3]
,     Maximum=    3.2795E-01  at reduced coord.    0.0000    0.8333    0.8333
,     Minimum=   -1.8203E-03  at reduced coord.    0.7222    0.5000    0.2222
,  Integrated=    1.9674E+00
 Relative magnetization (=zeta, between -1 and 1)
,     Maximum=    5.7306E-01  at reduced coord.    0.0000    0.8889    0.8889
,     Minimum=   -4.8326E-02  at reduced coord.    0.7222    0.5000    0.2222
 Total charge density [el/Bohr^3]
,     Maximum=    6.3401E-01  at reduced coord.    0.8333    0.8333    0.8333
,     Minimum=    1.2373E-03  at reduced coord.    0.0000    0.0000    0.0000
,  Integrated=    8.0000E+00
 Spin up density      [el/Bohr^3]
,     Maximum=    4.5297E-01  at reduced coord.    0.0000    0.8333    0.8333
,     Minimum=    6.5629E-04  at reduced coord.    0.0000    0.0000    0.0000
,  Integrated=    4.9837E+00
 Spin down density    [el/Bohr^3]
,     Maximum=    2.3449E-01  at reduced coord.    0.8333    0.8333    0.8333
,     Minimum=    5.8096E-04  at reduced coord.    0.0000    0.0000    0.0000
,  Integrated=    3.0163E+00
 Magnetization (spin up - spin down) [el/Bohr^3]
,     Maximum=    3.2795E-01  at reduced coord.    0.0000    0.8333    0.8333
,     Minimum=   -1.8203E-03  at reduced coord.    0.7222    0.5000    0.2222
,  Integrated=    1.9674E+00
 Relative magnetization (=zeta, between -1 and 1)
,     Maximum=    5.7306E-01  at reduced coord.    0.0000    0.8889    0.8889
,     Minimum=   -4.8326E-02  at reduced coord.    0.7222    0.5000    0.2222
 ETOT 30  -24.670792867767     0.00E+00 3.63E-04 1.33E-12 1.967
 scprqt: <Vxc>= -5.1673268E-01 hartree

 At SCF step   30       vres2   =  1.33E-12 < tolvrs=  1.00E-10 =>converged.

 Cartesian components of stress tensor (hartree/bohr^3)
  sigma(1 1)=  1.86261357E-02  sigma(3 2)=  0.00000000E+00
  sigma(2 2)=  1.86261357E-02  sigma(3 1)=  0.00000000E+00
  sigma(3 3)=  1.86261357E-02  sigma(2 1)=  0.00000000E+00

   1  1  1  1  1  1  1  1  1  1  1  1  1  1  1  1  1  1  1  1  1  1  1  1
   1  1  1  1  1  1  1  1  1  1  1  1  1  1  1  1  1  1  1  1  1  1  1  1
 ioarr: writing density data
ioarr: file name is Fe_o_DS2_DEN
ioarr: data written to disk file Fe_o_DS2_DEN
================================================================================

 ----iterations are completed or convergence reached----


 outwf: write wavefunction to file Fe_o_DS2_WFK, with accesswff -1
 outwf with iomode: -1, cpu:     0.01, wall:     0.00

 Cartesian components of stress tensor (hartree/bohr^3)
  sigma(1 1)=  1.86261357E-02  sigma(3 2)=  0.00000000E+00
  sigma(2 2)=  1.86261357E-02  sigma(3 1)=  0.00000000E+00
  sigma(3 3)=  1.86261357E-02  sigma(2 1)=  0.00000000E+00

-Cartesian components of stress tensor (GPa)         [Pressure= -5.4800E+02 GPa]
- sigma(1 1)=  5.47999739E+02  sigma(3 2)=  0.00000000E+00
- sigma(2 2)=  5.47999739E+02  sigma(3 1)=  0.00000000E+00
- sigma(3 3)=  5.47999739E+02  sigma(2 1)=  0.00000000E+00

== END DATASET(S) ==============================================================
================================================================================
  
 -outvars: echo values of variables after computation  --------
            acell      5.4200000000E+00  5.4200000000E+00  5.4200000000E+00 Bohr
              amu      5.58470000E+01
        bs_loband1          0
        bs_loband2          0       0
             ecut      1.80000000E+01 Hartree
           etotal1    -2.4661707268E+01
           etotal2    -2.4670792868E+01
            fcart1    -0.0000000000E+00 -0.0000000000E+00 -0.0000000000E+00
            fcart2    -0.0000000000E+00 -0.0000000000E+00 -0.0000000000E+00
-          fftalg         112
             iscf           5
           jdtset        1    2
              kpt      1.25000000E-01  1.25000000E-01  1.25000000E-01
                       3.75000000E-01  1.25000000E-01  1.25000000E-01
                      -1.25000000E-01  1.25000000E-01  1.25000000E-01
                      -3.75000000E-01  3.75000000E-01  1.25000000E-01
                      -3.75000000E-01 -3.75000000E-01  1.25000000E-01
                      -3.75000000E-01  3.75000000E-01  3.75000000E-01
         kptrlatt        4    0    0      0    4    0      0    0    4
          kptrlen      1.87754308E+01
P           mkmem           6
            natom           1
            nband1          8
            nband2          8
           ndtset           2
            ngfft          18      18      18
             nkpt           6
           nspden1          1
           nspden2          2
           nsppol1          1
           nsppol2          2
            nstep          50
             nsym          48
           ntypat           1
              occ1     2.000000  1.999891  1.999891  1.229151  1.229151  0.286756
                       0.000000  0.000000
                       1.999999  1.999987  1.998982  1.142097  0.970197  0.000001
                       0.000000  0.000000
                       2.000000  1.998522  1.997347  1.997347  1.951611  0.760699
                       0.000000  0.000000
                       2.000000  1.999757  1.999291  1.640524  0.091742  0.055543
                       0.000000  0.000000
                       1.999978  1.999978  1.999921  0.859639  0.859639  0.000000
                       0.000000  0.000000
                       1.999999  1.999995  0.595113  0.595113  0.115635  0.000000
                       0.000000  0.000000
              occ2     1.000000  0.999995  0.999995  0.983960  0.983960  0.694675
                       0.000000  0.000000
                       1.000000  0.999999  0.999881  0.983611  0.970152  0.000002
                       0.000000  0.000000
                       1.000000  0.999945  0.999891  0.999891  0.999261  0.963285
                       0.000000  0.000000
                       1.000000  0.999989  0.999961  0.990137  0.435333  0.332628
                       0.000000  0.000000
                       0.999999  0.999999  0.999995  0.933376  0.933376  0.000000
                       0.000000  0.000000
                       1.000000  1.000000  0.850805  0.850805  0.517177  0.000000
                       0.000000  0.000000
                       1.000000  0.997302  0.997302  0.008977  0.008977  0.002239
                       0.000000  0.000000
                       0.999990  0.999723  0.992359  0.006357  0.005633  0.000000
                       0.000000  0.000000
                       1.000000  0.949745  0.922917  0.922917  0.217576  0.003128
                       0.000000  0.000000
                       1.000000  0.993545  0.988810  0.041784  0.000486  0.000299
                       0.000000  0.000000
                       0.999607  0.999607  0.998396  0.007571  0.007571  0.000000
                       0.000000  0.000000
                       0.999983  0.999866  0.006180  0.006180  0.000639  0.000000
                       0.000000  0.000000
           occopt           3
           prtdos           1
            rprim     -5.0000000000E-01  5.0000000000E-01  5.0000000000E-01
                       5.0000000000E-01 -5.0000000000E-01  5.0000000000E-01
                       5.0000000000E-01  5.0000000000E-01 -5.0000000000E-01
           shiftk      5.00000000E-01  5.00000000E-01  5.00000000E-01
          spgroup         229
           spinat1     0.0000000000E+00  0.0000000000E+00  0.0000000000E+00
           spinat2     0.0000000000E+00  0.0000000000E+00  4.0000000000E+00
           strten1     1.8895258935E-02  1.8895258935E-02  1.8895258935E-02
                       0.0000000000E+00  0.0000000000E+00  0.0000000000E+00
           strten2     1.8626135669E-02  1.8626135669E-02  1.8626135669E-02
                       0.0000000000E+00  0.0000000000E+00  0.0000000000E+00
           symrel      1  0  0   0  1  0   0  0  1      -1  0  0   0 -1  0   0  0 -1
                      -1 -1 -1   0  0  1   0  1  0       1  1  1   0  0 -1   0 -1  0
                       0  1  0   1  0  0  -1 -1 -1       0 -1  0  -1  0  0   1  1  1
                       0  0  1  -1 -1 -1   1  0  0       0  0 -1   1  1  1  -1  0  0
                       0  1  0   1  0  0   0  0  1       0 -1  0  -1  0  0   0  0 -1
                      -1 -1 -1   0  0  1   1  0  0       1  1  1   0  0 -1  -1  0  0
                       1  0  0   0  1  0  -1 -1 -1      -1  0  0   0 -1  0   1  1  1
                       0  0  1  -1 -1 -1   0  1  0       0  0 -1   1  1  1   0 -1  0
                      -1 -1 -1   1  0  0   0  0  1       1  1  1  -1  0  0   0  0 -1
                       0  1  0   0  0  1   1  0  0       0 -1  0   0  0 -1  -1  0  0
                       1  0  0  -1 -1 -1   0  1  0      -1  0  0   1  1  1   0 -1  0
                       0  0  1   0  1  0  -1 -1 -1       0  0 -1   0 -1  0   1  1  1
                       1  0  0  -1 -1 -1   0  0  1      -1  0  0   1  1  1   0  0 -1
                       0  1  0   0  0  1  -1 -1 -1       0 -1  0   0  0 -1   1  1  1
                      -1 -1 -1   1  0  0   0  1  0       1  1  1  -1  0  0   0 -1  0
                       0  0  1   0  1  0   1  0  0       0  0 -1   0 -1  0  -1  0  0
                       0  1  0  -1 -1 -1   0  0  1       0 -1  0   1  1  1   0  0 -1
                       1  0  0   0  0  1  -1 -1 -1      -1  0  0   0  0 -1   1  1  1
                      -1 -1 -1   0  1  0   1  0  0       1  1  1   0 -1  0  -1  0  0
                       0  0  1   1  0  0   0  1  0       0  0 -1  -1  0  0   0 -1  0
                      -1 -1 -1   0  1  0   0  0  1       1  1  1   0 -1  0   0  0 -1
                       1  0  0   0  0  1   0  1  0      -1  0  0   0  0 -1   0 -1  0
                       0  1  0  -1 -1 -1   1  0  0       0 -1  0   1  1  1  -1  0  0
                       0  0  1   1  0  0  -1 -1 -1       0  0 -1  -1  0  0   1  1  1
           tolvrs      1.00000000E-10
           tsmear      1.00000000E-02 Hartree
            typat      1
              wtk        0.12500    0.18750    0.09375    0.37500    0.12500    0.09375
            znucl       26.00000

================================================================================
  

================================================================================

 Suggested references for the acknowledgment of ABINIT usage.

 The users of ABINIT have little formal obligations with respect to the ABINIT group
 (those specified in the GNU General Public License, http://www.gnu.org/copyleft/gpl.txt).
 However, it is common practice in the scientific literature,
 to acknowledge the efforts of people that have made the research possible.
 In this spirit, please find below suggested citations of work written by ABINIT developers,
 corresponding to implementations inside of ABINIT that you have used in the present run.
 Note also that it will be of great value to readers of publications presenting these results,
 to read papers enabling them to understand the theoretical formalism and details
 of the ABINIT implementation.
 For information on why they are suggested, see also http://www.abinit.org/about/?text=acknowledgments.

 [1] ABINIT : First-principles approach of materials and nanosystem properties.
 X. Gonze, B. Amadon, P.-M. Anglade, J.-M. Beuken, F. Bottin, P. Boulanger, F. Bruneval,
 D. Caliste, R. Caracas, M. Cote, T. Deutsch, L. Genovese, Ph. Ghosez, M. Giantomassi
 S. Goedecker, D.R. Hamann, P. Hermet, F. Jollet, G. Jomard, S. Leroux, M. Mancini, S. Mazevet,
 M.J.T. Oliveira, G. Onida, Y. Pouillon, T. Rangel, G.-M. Rignanese, D. Sangalli, R. Shaltaf,
 M. Torrent, M.J. Verstraete, G. Zerah, J.W. Zwanziger
 Computer Phys. Comm. 180, 2582-2615 (2009).
 Comment : the third generic paper describing the ABINIT project.
 Note that a version of this paper, that is not formatted for Computer Phys. Comm. 
 is available at http://www.abinit.org/about/ABINIT_CPC_v10.pdf .
 The licence allows the authors to put it on the Web.

 [2] A brief introduction to the ABINIT software package.
 X. Gonze, G.-M. Rignanese, M. Verstraete, J.-M. Beuken, Y. Pouillon, R. Caracas, F. Jollet,
 M. Torrent, G. Zerah, M. Mikami, Ph. Ghosez, M. Veithen, J.-Y. Raty, V. Olevano, F. Bruneval,
 L. Reining, R. Godby, G. Onida, D.R. Hamann, and D.C. Allan.
 Z. Kristallogr. 220, 558-562 (2005).
 Comment : the second generic paper describing the ABINIT project. Note that this paper
 should be cited especially if you are using the GW part of ABINIT, as several authors
 of this part are not in the list of authors of the first or third paper.
 The .pdf of the latter paper is available at http://www.abinit.org/about/zfk_0505-06_558-562.pdf.
 Note that it should not redistributed (Copyright by Oldenburg Wissenshaftverlag,
 the licence allows the authors to put it on the Web).


 And optionally :

 [3] First-principles computation of material properties : the ABINIT software project. 
 X. Gonze, J.-M. Beuken, R. Caracas, F. Detraux, M. Fuchs, G.-M. Rignanese, L. Sindic,
 M. Verstraete, G. Zerah, F. Jollet, M. Torrent, A. Roy, M. Mikami, Ph. Ghosez, J.-Y. Raty, D.C. Allan.
 Computational Materials Science 25, 478-492 (2002). http://dx.doi.org/10.1016/S0927-0256(02)00325-7
 Comment : the original paper describing the ABINIT project.

 [4] Fast radix 2, 3, 4 and 5 kernels for Fast Fourier Transformations
 on computers with overlapping multiply-add instructions.
 S. Goedecker, SIAM J. on Scientific Computing 18, 1605 (1997).

 [5] Towards a potential-based conjugate gradient algorithm for order-N self-consistent
 total energy calculations.
 X. Gonze, Phys. Rev. B 54, 4383 (1996).
 Comment : The potential-based conjugate-gradient algorithm, used when iscf=5, is not published.
 However, many elements of this algorithm have been explained in the paper above.

 Calculation completed.
.Delivered    0 WARNINGs and   1 COMMENTs to log file.
--- !FinalSummary
start_date: Tue Jun 28 16:47:28 2016
end_date: Tue Jun 28 16:47:43 2016
overall_cpu_time:          41.2
overall_wall_time:          15.3
...
