BAND
NaCl
4 0 60 1 18 2 1
G X
X W
W L
L G
NEWK
12 12
1 0
DOSS
0 300 11 14 1 12 1 0 1 105
-1 1
END
END
ECHG
0
65
COORDINA
0 0 0
8 0 0
8 8 8
MARGINS
0.5 0.5 0.5 0.5
END
PATO
0 0
ECHG
0
65
COORDINA
0 0 0
8 0 0
8 8 8
MARGINS
0.5 0.5 0.5 0.5
END
END
END
         
 *******************************************************************************
 *                                                                             *
 *                               CRYSTAL14                                     *
 *                      public : 1.0.3 - Sep 1st, 2014                         *
 *                       HTTP://WWW.CRYSTAL.UNITO.IT                           *
 *                                                                             *
 *                              MAIN AUTHORS                                   *
 *                                                                             *
 *  R. DOVESI(1,11), V.R. SAUNDERS(2), C. ROETTI(1,11), R. ORLANDO(1,11),      *
 *  C.M. ZICOVICH-WILSON(1,3), F. PASCALE(4), B. CIVALLERI(1,11),              *
 *  K. DOLL(5), N.M. HARRISON(2,6), I. J. BUSH(7), Ph. D'ARCO(8),              *
 *  M. LLUNELL(9), M. CAUSA'(10), Y. NOEL(8)                                   *
 *                                                                             *
 *        CONTRIBUTIONS TO THE CURRENT RELEASE HAVE BEEN GIVEN BY              *
 *                                                                             *
 *  L. MASCHIO(1,11), S. CASASSA(1,11), A. ERBA(1,11), M. FERRABONE(1,11),     *
 *  M. DE LA PIERRE(1,11), M. FERRERO(1,11), V. LACIVITA(1,11),                *
 *  J. BAIMA(1,11), E. ALBANESE(1,11), M.F. PEINTINGER(12), R. BAST(13),       *
 *  M. RERAT(14), B. KIRTMAN(15), R. DEMICHELIS(1,16)                          *
 *                                                                             *
 * (1) THEORETICAL CHEMISTRY GROUP - UNIVERSITA' DI TORINO - TORINO (ITALY)    *
 *     http://www.crystal.unito.it                                             *
 * (2) COMPUTATIONAL SCIENCE & ENGINEERING DEPARTMENT - STFC DARESBURY (UK)    *
 *     http://www.stfc.ac.uk/CSE/randd/cmg/CRYSTAL/25806.aspx                  *
 * (3) UNIVERSIDAD AUTONOMA DEL ESTADO DE MORELOS - CUERNAVACA (MEXICO)        *
 * (4) UNIVERSITE' DE LORRAINE - NANCY (FRANCE)                                *
 * (5) UNIVERSITAET ULM - ULM (GERMANY); (6) IMPERIAL COLLEGE - LONDON (UK)    *
 * (7) NAG - OXFORD (UK); (8) UPMC - SORBONNE UNIVERSITES - PARIS (FRANCE)     *
 * (9) UNIVERSIDAD DE BARCELONA - BARCELONA (SPAIN)                            *
 *(10) UNIVERSITA' DI NAPOLI "FEDERICO II" - NAPOLI (ITALY)                    *
 *(11) NIS - NANOSTRUCTURED INTERFACES AND SURFACES - TORINO (ITALY)           *
 *(12) MPI FUER CHEMISCHE ENERGIEKONVERSION - MUELHEIM AN DER RUHR (GERMANY)   *
 *(13) UNIVERSITY OF STOCKHOLM - STOCKHOLM (SWEDEN)                            *
 *(14) UNIVERSITE' DE PAU ET DES PAYS DE L'ADOUR - PAU (FRANCE)                *
 *(15) UNIVERSITY OF CALIFORNIA SANTA BARBARA - SANTA BARBARA (USA)            *
 *(16) CURTIN UNIVERSITY - PERTH (AUSTRALIA)                                   *
 *                                                                             *
 ********************************************************************************
 EEEEEEEEEE STARTING  DATE 26 05 2016 TIME 13:13:06.5

 *******************************************************************************
 NaCl                                                                            
 CRYSTAL - PROPERTIES - TYPE OF CALCULATION :  RESTRICTED CLOSED SHELL
 *******************************************************************************
 HARTREE-FOCK HAMILTONIAN

 DIRECT LATTICE VECTOR COMPONENTS (ANGSTROM)
         0.00000    2.82010    2.82010
         2.82010    0.00000    2.82010
         2.82010    2.82010    0.00000

 LATTICE PARAMETERS  (ANGSTROM AND DEGREES) - PRIMITIVE CELL
       A          B          C         ALPHA      BETA     GAMMA        VOLUME
    3.98822    3.98822    3.98822     60.0000   60.0000   60.0000      44.85631
 *******************************************************************************
 N. OF ATOMS PER CELL         2 COULOMB OVERLAP TOL          (T1) 10**   -6
 NUMBER OF SHELLS            10 COULOMB PENETRATION TOL      (T2) 10**   -6
 NUMBER OF AO                35 EXCHANGE OVERLAP TOL         (T3) 10**   -6
 N. OF ELECTRONS PER CELL    28 EXCHANGE PSEUDO OVP (F(G))   (T4) 10**   -6
 CORE ELECTRONS PER CELL     20 EXCHANGE PSEUDO OVP (P(G))   (T5) 10**  -12
 N. OF SYMMETRY OPERATORS    48 POLE ORDER IN MONO ZONE                   4
 *******************************************************************************
   ATOM N.AT.  SHELL    X(A)      Y(A)      Z(A)      EXAD       N.ELECT.
 *******************************************************************************
    1   11 NA    5     0.000     0.000     0.000   7.785E-01      10.027
    2   17 CL    5     2.820     2.820     2.820   1.250E-01      17.973
 *******************************************************************************
 DE(K)                   0.000E+00  ENERGY LEVEL SHIFTING        0.00000
 TOTAL ENERGY -6.2149540004172E+02  CONVERGENCE ON ENER       -3.683E-11
 KIN. ENERGY   6.2134472716213E+02  VIR. COEFF.           9.99878767E-01
 N. OF SCF CYCLES               22  FERMI ENERGY              -0.397E+00
 WEIGHT OF F(I) IN F(I+1)      30
 SHRINK. FACT.(MONKH.)    16 16 16  SHRINKING FACTOR(GILAT NET)       16
 NUMBER OF K POINTS IN THE IBZ 145  CELL VOLUME (A.U.)        302.705372
 *******************************************************************************

 GCALCO - MAX INDICES DIRECT LATTICE VECTOR    14    14    14
 NO.OF VECTORS CREATED 6999 STARS  105 RMAX    79.76041 BOHR

 MATRIX SIZE: P(G)   31533, F(G)    5204, P(G) IRR    1802, F(G) IRR     964
 MAX G-VECTOR INDEX FOR 1- AND 2-ELECTRON INTEGRALS 247


 CAPPA:IS1 16;IS2 16;IS3 16; K PTS MONK NET 145; SYMMOPS:K SPACE  48;G SPACE  48

 WARNING **** F90MAIN3 **** BF SYMMETRY ADAPTED-INFO MODIFIED BY BAND-CALL NEWK


 *******************************************************************************
 *                                                                             *
 *  BAND STRUCTURE                                                             *
 *  NaCl                                                                       *
 *  FROM BAND   1 TO BAND  18                                                  *
 *  TOTAL OF  60 K-POINTS ALONG THE PATH                                       *
 *                                                                             *
 *******************************************************************************

 LINE  1 ( 0.00 0.00 0.00: 0.50 0.00 0.50) IN TERMS OF PRIMITIVE LATTICE VECTORS
  20 POINTS - SHRINKING_FACTOR 456
 CARTESIAN COORD. ( 0.000 0.000 0.000):( 0.000 0.590 0.000) STEP  0.0310


   1(  0/456  0/456  0/456)
                -1.048E+02 -4.043E+01 -1.048E+01 -7.954E+00 -7.954E+00 -7.954E+00 -2.744E+00 -1.467E+00 -1.467E+00 -1.467E+00
                -1.029E+00 -3.969E-01 -3.969E-01 -3.969E-01  1.286E-01  6.247E-01  6.247E-01  6.247E-01

   2( 12/456  0/456 12/456)
                -1.048E+02 -4.043E+01 -1.048E+01 -7.954E+00 -7.954E+00 -7.954E+00 -2.744E+00 -1.467E+00 -1.467E+00 -1.467E+00
                -1.028E+00 -3.977E-01 -3.971E-01 -3.971E-01  1.297E-01  6.207E-01  6.247E-01  6.247E-01

   3( 24/456  0/456 24/456)
                -1.048E+02 -4.043E+01 -1.048E+01 -7.954E+00 -7.954E+00 -7.954E+00 -2.744E+00 -1.467E+00 -1.467E+00 -1.467E+00
                -1.028E+00 -4.000E-01 -3.977E-01 -3.977E-01  1.332E-01  6.089E-01  6.244E-01  6.244E-01

   4( 36/456  0/456 36/456)
                -1.048E+02 -4.043E+01 -1.048E+01 -7.954E+00 -7.954E+00 -7.954E+00 -2.744E+00 -1.467E+00 -1.467E+00 -1.467E+00
                -1.027E+00 -4.037E-01 -3.988E-01 -3.988E-01  1.390E-01  5.906E-01  6.236E-01  6.236E-01

   5( 48/456  0/456 48/456)
                -1.048E+02 -4.043E+01 -1.048E+01 -7.954E+00 -7.954E+00 -7.954E+00 -2.744E+00 -1.467E+00 -1.467E+00 -1.467E+00
                -1.026E+00 -4.086E-01 -4.002E-01 -4.002E-01  1.471E-01  5.677E-01  6.220E-01  6.220E-01

   6( 60/456  0/456 60/456)
                -1.048E+02 -4.043E+01 -1.048E+01 -7.954E+00 -7.954E+00 -7.954E+00 -2.744E+00 -1.467E+00 -1.467E+00 -1.467E+00
                -1.025E+00 -4.143E-01 -4.020E-01 -4.020E-01  1.573E-01  5.428E-01  6.190E-01  6.190E-01

   7( 72/456  0/456 72/456)
                -1.048E+02 -4.043E+01 -1.048E+01 -7.954E+00 -7.954E+00 -7.954E+00 -2.744E+00 -1.467E+00 -1.467E+00 -1.467E+00
                -1.024E+00 -4.207E-01 -4.040E-01 -4.040E-01  1.693E-01  5.181E-01  6.143E-01  6.143E-01

   8( 84/456  0/456 84/456)
                -1.048E+02 -4.043E+01 -1.048E+01 -7.954E+00 -7.954E+00 -7.954E+00 -2.744E+00 -1.467E+00 -1.467E+00 -1.467E+00
                -1.023E+00 -4.274E-01 -4.062E-01 -4.062E-01  1.826E-01  4.951E-01  6.078E-01  6.078E-01

   9( 96/456  0/456 96/456)
                -1.048E+02 -4.043E+01 -1.048E+01 -7.954E+00 -7.954E+00 -7.954E+00 -2.744E+00 -1.467E+00 -1.467E+00 -1.467E+00
                -1.021E+00 -4.343E-01 -4.085E-01 -4.085E-01  1.969E-01  4.746E-01  5.998E-01  5.998E-01

  10(108/456  0/456108/456)
                -1.048E+02 -4.043E+01 -1.048E+01 -7.954E+00 -7.954E+00 -7.954E+00 -2.744E+00 -1.467E+00 -1.467E+00 -1.467E+00
                -1.020E+00 -4.409E-01 -4.110E-01 -4.110E-01  2.117E-01  4.570E-01  5.911E-01  5.911E-01

  11(120/456  0/456120/456)
                -1.048E+02 -4.043E+01 -1.048E+01 -7.954E+00 -7.954E+00 -7.954E+00 -2.744E+00 -1.467E+00 -1.467E+00 -1.467E+00
                -1.018E+00 -4.473E-01 -4.134E-01 -4.134E-01  2.264E-01  4.425E-01  5.825E-01  5.825E-01

  12(132/456  0/456132/456)
                -1.048E+02 -4.043E+01 -1.048E+01 -7.954E+00 -7.954E+00 -7.954E+00 -2.744E+00 -1.467E+00 -1.467E+00 -1.467E+00
                -1.017E+00 -4.532E-01 -4.157E-01 -4.157E-01  2.406E-01  4.310E-01  5.746E-01  5.746E-01

  13(144/456  0/456144/456)
                -1.048E+02 -4.043E+01 -1.048E+01 -7.954E+00 -7.954E+00 -7.954E+00 -2.743E+00 -1.467E+00 -1.467E+00 -1.467E+00
                -1.015E+00 -4.585E-01 -4.180E-01 -4.180E-01  2.538E-01  4.222E-01  5.678E-01  5.678E-01

  14(156/456  0/456156/456)
                -1.048E+02 -4.043E+01 -1.048E+01 -7.954E+00 -7.954E+00 -7.954E+00 -2.743E+00 -1.467E+00 -1.467E+00 -1.467E+00
                -1.014E+00 -4.631E-01 -4.200E-01 -4.200E-01  2.659E-01  4.157E-01  5.622E-01  5.622E-01

  15(168/456  0/456168/456)
                -1.048E+02 -4.043E+01 -1.048E+01 -7.954E+00 -7.954E+00 -7.954E+00 -2.743E+00 -1.467E+00 -1.467E+00 -1.467E+00
                -1.013E+00 -4.671E-01 -4.218E-01 -4.218E-01  2.768E-01  4.108E-01  5.578E-01  5.578E-01

  16(180/456  0/456180/456)
                -1.048E+02 -4.043E+01 -1.048E+01 -7.954E+00 -7.954E+00 -7.954E+00 -2.743E+00 -1.467E+00 -1.467E+00 -1.467E+00
                -1.012E+00 -4.704E-01 -4.234E-01 -4.234E-01  2.866E-01  4.067E-01  5.545E-01  5.545E-01

  17(192/456  0/456192/456)
                -1.048E+02 -4.043E+01 -1.048E+01 -7.954E+00 -7.954E+00 -7.954E+00 -2.743E+00 -1.467E+00 -1.467E+00 -1.467E+00
                -1.011E+00 -4.730E-01 -4.246E-01 -4.246E-01  2.952E-01  4.028E-01  5.521E-01  5.521E-01

  18(204/456  0/456204/456)
                -1.048E+02 -4.043E+01 -1.048E+01 -7.954E+00 -7.954E+00 -7.954E+00 -2.743E+00 -1.467E+00 -1.467E+00 -1.467E+00
                -1.011E+00 -4.748E-01 -4.255E-01 -4.255E-01  3.024E-01  3.991E-01  5.505E-01  5.505E-01

  19(216/456  0/456216/456)
                -1.048E+02 -4.043E+01 -1.048E+01 -7.954E+00 -7.954E+00 -7.954E+00 -2.743E+00 -1.467E+00 -1.467E+00 -1.467E+00
                -1.010E+00 -4.759E-01 -4.260E-01 -4.260E-01  3.074E-01  3.962E-01  5.496E-01  5.496E-01

  20(228/456  0/456228/456)
                -1.048E+02 -4.043E+01 -1.048E+01 -7.954E+00 -7.954E+00 -7.954E+00 -2.743E+00 -1.467E+00 -1.467E+00 -1.467E+00
                -1.010E+00 -4.762E-01 -4.262E-01 -4.262E-01  3.092E-01  3.951E-01  5.493E-01  5.493E-01

 LINE  2 ( 0.50 0.00 0.50: 0.50 0.25 0.75) IN TERMS OF PRIMITIVE LATTICE VECTORS
  10 POINTS - SHRINKING_FACTOR 240
 CARTESIAN COORD. ( 0.000 0.590 0.000):( 0.295 0.590 0.000) STEP  0.0295


   1(120/240  6/240126/240)
                -1.048E+02 -4.043E+01 -1.048E+01 -7.954E+00 -7.954E+00 -7.954E+00 -2.743E+00 -1.467E+00 -1.467E+00 -1.467E+00
                -1.010E+00 -4.760E-01 -4.266E-01 -4.264E-01  3.098E-01  3.952E-01  5.466E-01  5.472E-01

   2(120/240 12/240132/240)
                -1.048E+02 -4.043E+01 -1.048E+01 -7.954E+00 -7.954E+00 -7.954E+00 -2.743E+00 -1.467E+00 -1.467E+00 -1.467E+00
                -1.010E+00 -4.752E-01 -4.276E-01 -4.268E-01  3.116E-01  3.955E-01  5.389E-01  5.411E-01

   3(120/240 18/240138/240)
                -1.048E+02 -4.043E+01 -1.048E+01 -7.954E+00 -7.954E+00 -7.954E+00 -2.743E+00 -1.467E+00 -1.467E+00 -1.467E+00
                -1.010E+00 -4.738E-01 -4.293E-01 -4.274E-01  3.148E-01  3.962E-01  5.275E-01  5.311E-01

   4(120/240 24/240144/240)
                -1.048E+02 -4.043E+01 -1.048E+01 -7.954E+00 -7.954E+00 -7.954E+00 -2.743E+00 -1.467E+00 -1.467E+00 -1.467E+00
                -1.010E+00 -4.720E-01 -4.316E-01 -4.282E-01  3.195E-01  3.972E-01  5.133E-01  5.177E-01

   5(120/240 30/240150/240)
                -1.048E+02 -4.043E+01 -1.048E+01 -7.954E+00 -7.954E+00 -7.954E+00 -2.743E+00 -1.467E+00 -1.467E+00 -1.467E+00
                -1.010E+00 -4.697E-01 -4.345E-01 -4.291E-01  3.258E-01  3.990E-01  4.976E-01  5.016E-01

   6(120/240 36/240156/240)
                -1.048E+02 -4.043E+01 -1.048E+01 -7.954E+00 -7.954E+00 -7.954E+00 -2.743E+00 -1.467E+00 -1.467E+00 -1.467E+00
                -1.010E+00 -4.670E-01 -4.377E-01 -4.300E-01  3.335E-01  4.015E-01  4.812E-01  4.844E-01

   7(120/240 42/240162/240)
                -1.048E+02 -4.043E+01 -1.048E+01 -7.954E+00 -7.954E+00 -7.954E+00 -2.743E+00 -1.467E+00 -1.467E+00 -1.467E+00
                -1.010E+00 -4.639E-01 -4.413E-01 -4.307E-01  3.424E-01  4.053E-01  4.651E-01  4.673E-01

   8(120/240 48/240168/240)
                -1.048E+02 -4.043E+01 -1.048E+01 -7.954E+00 -7.954E+00 -7.954E+00 -2.743E+00 -1.467E+00 -1.467E+00 -1.467E+00
                -1.010E+00 -4.605E-01 -4.451E-01 -4.314E-01  3.514E-01  4.104E-01  4.507E-01  4.515E-01

   9(120/240 54/240174/240)
                -1.048E+02 -4.043E+01 -1.048E+01 -7.954E+00 -7.954E+00 -7.954E+00 -2.743E+00 -1.467E+00 -1.467E+00 -1.467E+00
                -1.010E+00 -4.568E-01 -4.490E-01 -4.318E-01  3.588E-01  4.174E-01  4.378E-01  4.399E-01

  10(120/240 60/240180/240)
                -1.048E+02 -4.043E+01 -1.048E+01 -7.954E+00 -7.954E+00 -7.954E+00 -2.743E+00 -1.467E+00 -1.467E+00 -1.467E+00
                -1.010E+00 -4.530E-01 -4.530E-01 -4.319E-01  3.619E-01  4.264E-01  4.264E-01  4.357E-01

 LINE  3 ( 0.50 0.25 0.75: 0.50 0.50 0.50) IN TERMS OF PRIMITIVE LATTICE VECTORS
  14 POINTS - SHRINKING_FACTOR 336
 CARTESIAN COORD. ( 0.295 0.590 0.000):( 0.295 0.295 0.295) STEP  0.0298


   1(168/336 90/336246/336)
                -1.048E+02 -4.043E+01 -1.048E+01 -7.954E+00 -7.954E+00 -7.954E+00 -2.743E+00 -1.467E+00 -1.467E+00 -1.467E+00
                -1.010E+00 -4.538E-01 -4.525E-01 -4.312E-01  3.614E-01  4.182E-01  4.279E-01  4.438E-01

   2(168/336 96/336240/336)
                -1.048E+02 -4.043E+01 -1.048E+01 -7.954E+00 -7.954E+00 -7.954E+00 -2.743E+00 -1.467E+00 -1.467E+00 -1.467E+00
                -1.010E+00 -4.561E-01 -4.510E-01 -4.293E-01  3.601E-01  4.067E-01  4.319E-01  4.549E-01

   3(168/336102/336234/336)
                -1.048E+02 -4.043E+01 -1.048E+01 -7.954E+00 -7.954E+00 -7.954E+00 -2.743E+00 -1.467E+00 -1.467E+00 -1.467E+00
                -1.010E+00 -4.593E-01 -4.487E-01 -4.268E-01  3.585E-01  3.950E-01  4.377E-01  4.657E-01

   4(168/336108/336228/336)
                -1.048E+02 -4.043E+01 -1.048E+01 -7.954E+00 -7.954E+00 -7.954E+00 -2.743E+00 -1.467E+00 -1.467E+00 -1.467E+00
                -1.010E+00 -4.628E-01 -4.455E-01 -4.241E-01  3.573E-01  3.836E-01  4.448E-01  4.759E-01

   5(168/336114/336222/336)
                -1.048E+02 -4.043E+01 -1.048E+01 -7.954E+00 -7.954E+00 -7.954E+00 -2.743E+00 -1.467E+00 -1.467E+00 -1.467E+00
                -1.011E+00 -4.664E-01 -4.417E-01 -4.215E-01  3.567E-01  3.727E-01  4.525E-01  4.851E-01

   6(168/336120/336216/336)
                -1.048E+02 -4.043E+01 -1.048E+01 -7.954E+00 -7.954E+00 -7.954E+00 -2.743E+00 -1.467E+00 -1.467E+00 -1.467E+00
                -1.011E+00 -4.700E-01 -4.373E-01 -4.191E-01  3.568E-01  3.625E-01  4.605E-01  4.931E-01

   7(168/336126/336210/336)
                -1.048E+02 -4.043E+01 -1.048E+01 -7.954E+00 -7.954E+00 -7.954E+00 -2.743E+00 -1.467E+00 -1.467E+00 -1.467E+00
                -1.011E+00 -4.734E-01 -4.326E-01 -4.169E-01  3.530E-01  3.575E-01  4.688E-01  4.996E-01

   8(168/336132/336204/336)
                -1.048E+02 -4.043E+01 -1.048E+01 -7.954E+00 -7.954E+00 -7.954E+00 -2.743E+00 -1.468E+00 -1.467E+00 -1.467E+00
                -1.012E+00 -4.765E-01 -4.278E-01 -4.150E-01  3.444E-01  3.588E-01  4.770E-01  5.045E-01

   9(168/336138/336198/336)
                -1.048E+02 -4.043E+01 -1.048E+01 -7.954E+00 -7.954E+00 -7.954E+00 -2.743E+00 -1.468E+00 -1.467E+00 -1.467E+00
                -1.012E+00 -4.792E-01 -4.231E-01 -4.135E-01  3.369E-01  3.603E-01  4.852E-01  5.079E-01

  10(168/336144/336192/336)
                -1.048E+02 -4.043E+01 -1.048E+01 -7.954E+00 -7.954E+00 -7.954E+00 -2.744E+00 -1.468E+00 -1.467E+00 -1.467E+00
                -1.012E+00 -4.816E-01 -4.188E-01 -4.122E-01  3.306E-01  3.618E-01  4.930E-01  5.099E-01

  11(168/336150/336186/336)
                -1.048E+02 -4.043E+01 -1.048E+01 -7.954E+00 -7.954E+00 -7.954E+00 -2.744E+00 -1.468E+00 -1.467E+00 -1.467E+00
                -1.013E+00 -4.834E-01 -4.151E-01 -4.112E-01  3.255E-01  3.632E-01  5.002E-01  5.110E-01

  12(168/336156/336180/336)
                -1.048E+02 -4.043E+01 -1.048E+01 -7.954E+00 -7.954E+00 -7.954E+00 -2.744E+00 -1.468E+00 -1.467E+00 -1.467E+00
                -1.013E+00 -4.848E-01 -4.123E-01 -4.105E-01  3.218E-01  3.644E-01  5.061E-01  5.114E-01

  13(168/336162/336174/336)
                -1.048E+02 -4.043E+01 -1.048E+01 -7.954E+00 -7.954E+00 -7.954E+00 -2.744E+00 -1.468E+00 -1.467E+00 -1.467E+00
                -1.013E+00 -4.856E-01 -4.105E-01 -4.100E-01  3.195E-01  3.651E-01  5.101E-01  5.115E-01

  14(168/336168/336168/336)
                -1.048E+02 -4.043E+01 -1.048E+01 -7.954E+00 -7.954E+00 -7.954E+00 -2.744E+00 -1.468E+00 -1.467E+00 -1.467E+00
                -1.013E+00 -4.859E-01 -4.099E-01 -4.099E-01  3.188E-01  3.653E-01  5.115E-01  5.115E-01

 LINE  4 ( 0.50 0.50 0.50: 0.00 0.00 0.00) IN TERMS OF PRIMITIVE LATTICE VECTORS
  17 POINTS - SHRINKING_FACTOR 408
 CARTESIAN COORD. ( 0.295 0.295 0.295):( 0.000 0.000 0.000) STEP  0.0300


   1(192/408192/408192/408)
                -1.048E+02 -4.043E+01 -1.048E+01 -7.954E+00 -7.954E+00 -7.954E+00 -2.744E+00 -1.468E+00 -1.467E+00 -1.467E+00
                -1.013E+00 -4.852E-01 -4.098E-01 -4.098E-01  3.129E-01  3.717E-01  5.122E-01  5.122E-01

   2(180/408180/408180/408)
                -1.048E+02 -4.043E+01 -1.048E+01 -7.954E+00 -7.954E+00 -7.954E+00 -2.744E+00 -1.468E+00 -1.467E+00 -1.467E+00
                -1.013E+00 -4.833E-01 -4.095E-01 -4.095E-01  3.002E-01  3.860E-01  5.142E-01  5.142E-01

   3(168/408168/408168/408)
                -1.048E+02 -4.043E+01 -1.048E+01 -7.954E+00 -7.954E+00 -7.954E+00 -2.744E+00 -1.468E+00 -1.467E+00 -1.467E+00
                -1.014E+00 -4.801E-01 -4.090E-01 -4.090E-01  2.853E-01  4.035E-01  5.175E-01  5.175E-01

   4(156/408156/408156/408)
                -1.048E+02 -4.043E+01 -1.048E+01 -7.954E+00 -7.954E+00 -7.954E+00 -2.744E+00 -1.468E+00 -1.467E+00 -1.467E+00
                -1.015E+00 -4.757E-01 -4.083E-01 -4.083E-01  2.697E-01  4.230E-01  5.221E-01  5.221E-01

   5(144/408144/408144/408)
                -1.048E+02 -4.043E+01 -1.048E+01 -7.954E+00 -7.954E+00 -7.954E+00 -2.744E+00 -1.467E+00 -1.467E+00 -1.467E+00
                -1.016E+00 -4.703E-01 -4.074E-01 -4.074E-01  2.538E-01  4.439E-01  5.280E-01  5.280E-01

   6(132/408132/408132/408)
                -1.048E+02 -4.043E+01 -1.048E+01 -7.954E+00 -7.954E+00 -7.954E+00 -2.744E+00 -1.467E+00 -1.467E+00 -1.467E+00
                -1.017E+00 -4.640E-01 -4.064E-01 -4.064E-01  2.380E-01  4.661E-01  5.352E-01  5.352E-01

   7(120/408120/408120/408)
                -1.048E+02 -4.043E+01 -1.048E+01 -7.954E+00 -7.954E+00 -7.954E+00 -2.744E+00 -1.467E+00 -1.467E+00 -1.467E+00
                -1.019E+00 -4.568E-01 -4.053E-01 -4.053E-01  2.223E-01  4.891E-01  5.436E-01  5.436E-01

   8(108/408108/408108/408)
                -1.048E+02 -4.043E+01 -1.048E+01 -7.954E+00 -7.954E+00 -7.954E+00 -2.744E+00 -1.467E+00 -1.467E+00 -1.467E+00
                -1.020E+00 -4.491E-01 -4.042E-01 -4.042E-01  2.071E-01  5.123E-01  5.531E-01  5.531E-01

   9( 96/408 96/408 96/408)
                -1.048E+02 -4.043E+01 -1.048E+01 -7.954E+00 -7.954E+00 -7.954E+00 -2.744E+00 -1.467E+00 -1.467E+00 -1.467E+00
                -1.022E+00 -4.410E-01 -4.030E-01 -4.030E-01  1.925E-01  5.350E-01  5.635E-01  5.635E-01

  10( 84/408 84/408 84/408)
                -1.048E+02 -4.043E+01 -1.048E+01 -7.954E+00 -7.954E+00 -7.954E+00 -2.744E+00 -1.467E+00 -1.467E+00 -1.467E+00
                -1.023E+00 -4.329E-01 -4.018E-01 -4.018E-01  1.787E-01  5.559E-01  5.745E-01  5.745E-01

  11( 72/408 72/408 72/408)
                -1.048E+02 -4.043E+01 -1.048E+01 -7.954E+00 -7.954E+00 -7.954E+00 -2.744E+00 -1.467E+00 -1.467E+00 -1.467E+00
                -1.024E+00 -4.248E-01 -4.006E-01 -4.006E-01  1.662E-01  5.743E-01  5.856E-01  5.856E-01

  12( 60/408 60/408 60/408)
                -1.048E+02 -4.043E+01 -1.048E+01 -7.954E+00 -7.954E+00 -7.954E+00 -2.744E+00 -1.467E+00 -1.467E+00 -1.467E+00
                -1.026E+00 -4.173E-01 -3.996E-01 -3.996E-01  1.551E-01  5.898E-01  5.962E-01  5.962E-01

  13( 48/408 48/408 48/408)
                -1.048E+02 -4.043E+01 -1.048E+01 -7.954E+00 -7.954E+00 -7.954E+00 -2.744E+00 -1.467E+00 -1.467E+00 -1.467E+00
                -1.027E+00 -4.105E-01 -3.987E-01 -3.987E-01  1.457E-01  6.023E-01  6.058E-01  6.058E-01

  14( 36/408 36/408 36/408)
                -1.048E+02 -4.043E+01 -1.048E+01 -7.954E+00 -7.954E+00 -7.954E+00 -2.744E+00 -1.467E+00 -1.467E+00 -1.467E+00
                -1.027E+00 -4.048E-01 -3.979E-01 -3.979E-01  1.383E-01  6.121E-01  6.138E-01  6.138E-01

  15( 24/408 24/408 24/408)
                -1.048E+02 -4.043E+01 -1.048E+01 -7.954E+00 -7.954E+00 -7.954E+00 -2.744E+00 -1.467E+00 -1.467E+00 -1.467E+00
                -1.028E+00 -4.005E-01 -3.973E-01 -3.973E-01  1.329E-01  6.191E-01  6.198E-01  6.198E-01

  16( 12/408 12/408 12/408)
                -1.048E+02 -4.043E+01 -1.048E+01 -7.954E+00 -7.954E+00 -7.954E+00 -2.744E+00 -1.467E+00 -1.467E+00 -1.467E+00
                -1.028E+00 -3.978E-01 -3.970E-01 -3.970E-01  1.297E-01  6.233E-01  6.235E-01  6.235E-01

  17(  0/408  0/408  0/408)
                -1.048E+02 -4.043E+01 -1.048E+01 -7.954E+00 -7.954E+00 -7.954E+00 -2.744E+00 -1.467E+00 -1.467E+00 -1.467E+00
                -1.029E+00 -3.969E-01 -3.969E-01 -3.969E-01  1.286E-01  6.247E-01  6.247E-01  6.247E-01

  360 DATA WRITTEN ON UNIT 25 WITH THE FOLLOWING HEADER :
 -%-0BAND      0    0    0   12    0   12

  180 DATA WRITTEN ON UNIT 25 WITH THE FOLLOWING HEADER :
 -%-0BAND     12    0   12   12    6   18

  252 DATA WRITTEN ON UNIT 25 WITH THE FOLLOWING HEADER :
 -%-0BAND     12    6   18   12   12   12

  306 DATA WRITTEN ON UNIT 25 WITH THE FOLLOWING HEADER :
 -%-0BAND     12   12   12    0    0    0

 ENERGY RANGE (A.U.) -104.75831 -   0.62475 EFERMI  -0.39686
     |*----------------------------------------------------------------------*---------------------------------*-*-----*-***|
     |*                                                                      *                                 * *     * ***|
     |*                                                                      *                                 * *     * ***|
     |*                                                                      *                                 * *     * ***|
     |*                                                                      *                                 * *     * ***|
     |*                                                                      *                                 * *     * ***|
     |*                                                                      *                                 * *     * ***|
     |*                                                                      *                                 * *     * ***|
     |*                                                                      *                                 * *     * ***|
     |*                                                                      *                                 * *     * ***|
     |*                                                                      *                                 * *     * ***|
     |*                                                                      *                                 * *     * ***|
     |*                                                                      *                                 * *     * ***|
     |*                                                                      *                                 * *     * ***|
     |*                                                                      *                                 * *     * ***|
     |*                                                                      *                                 * *     * ***|
     |*                                                                      *                                 * *     * ***|
     |*                                                                      *                                 * *     * ***|
     |*                                                                      *                                 * *     * ***|
     |*----------------------------------------------------------------------*---------------------------------*-*-----*-***|
     |*                                                                      *                                 * *     * ***|
     |*                                                                      *                                 * *     * ***|
     |*                                                                      *                                 * *     * ***|
     |*                                                                      *                                 * *     * ***|
     |*                                                                      *                                 * *     * ***|
     |*                                                                      *                                 * *     * ***|
     |*                                                                      *                                 * *     * ***|
     |*                                                                      *                                 * *     * ***|
     |*                                                                      *                                 * *     * ***|
     |*----------------------------------------------------------------------*---------------------------------*-*-----*-***|
     |*                                                                      *                                 * *     * ***|
     |*                                                                      *                                 * *     * ***|
     |*                                                                      *                                 * *     * ***|
     |*                                                                      *                                 * *     * ***|
     |*                                                                      *                                 * *     * ***|
     |*                                                                      *                                 * *     * ***|
     |*                                                                      *                                 * *     * ***|
     |*                                                                      *                                 * *     * ***|
     |*                                                                      *                                 * *     * ***|
     |*                                                                      *                                 * *     * ***|
     |*                                                                      *                                 * *     * ***|
     |*                                                                      *                                 * *     * ***|
     |*                                                                      *                                 * *     * ***|
     |*----------------------------------------------------------------------*---------------------------------*-*-----*-***|
     |*                                                                      *                                 * *     * ***|
     |*                                                                      *                                 * *     * ***|
     |*                                                                      *                                 * *     * ***|
     |*                                                                      *                                 * *     * ***|
     |*                                                                      *                                 * *     * ***|
     |*                                                                      *                                 * *     * ***|
     |*                                                                      *                                 * *     * ***|
     |*                                                                      *                                 * *     * ***|
     |*                                                                      *                                 * *     * ***|
     |*                                                                      *                                 * *     * ***|
     |*                                                                      *                                 * *     * ***|
     |*                                                                      *                                 * *     * ***|
     |*                                                                      *                                 * *     * ***|
     |*                                                                      *                                 * *     * ***|
     |*                                                                      *                                 * *     * ***|
     |*                                                                      *                                 * *     * ***|
     |*----------------------------------------------------------------------*---------------------------------*-*-----*-***|

 CAPPA:IS1 16;IS2 16;IS3 16; K PTS MONK NET 145; SYMMOPS:K SPACE  48;G SPACE  48

 TTTTTTTTTTTTTTTTTTTTTTTTTTTTTT BAND        TELAPSE        0.11 TCPU        0.11

 CAPPA:IS1 12;IS2 12;IS3 12; K PTS MONK NET  72; SYMMOPS:K SPACE  48;G SPACE  48

 *******************************************************************************
 RESTART WITH NEW K POINTS NET
 *******************************************************************************
 POINTS IN THE IBZ                  72 POINTS(GILAT NET)                72
 SHRINK FACTORS(MONK.)        12 12 12 SHRINK FACTOR(GILAT)             12
 *******************************************************************************
 *** K POINTS COORDINATES (OBLIQUE COORDINATES IN UNITS OF IS = 12)
   1-R(  0  0  0)   2-C(  1  0  0)   3-C(  2  0  0)   4-C(  3  0  0)
   5-C(  4  0  0)   6-C(  5  0  0)   7-R(  6  0  0)   8-C(  1  1  0)
   9-C(  2  1  0)  10-C(  3  1  0)  11-C(  4  1  0)  12-C(  5  1  0)
  13-C(  6  1  0)  14-C(  7  1  0)  15-C(  8  1  0)  16-C(  9  1  0)
  17-C( 10  1  0)  18-C( 11  1  0)  19-C(  2  2  0)  20-C(  3  2  0)
  21-C(  4  2  0)  22-C(  5  2  0)  23-C(  6  2  0)  24-C(  7  2  0)
  25-C(  8  2  0)  26-C(  9  2  0)  27-C( 10  2  0)  28-C(  3  3  0)
  29-C(  4  3  0)  30-C(  5  3  0)  31-C(  6  3  0)  32-C(  7  3  0)
  33-C(  8  3  0)  34-C(  9  3  0)  35-C(  4  4  0)  36-C(  5  4  0)
  37-C(  6  4  0)  38-C(  7  4  0)  39-C(  8  4  0)  40-C(  5  5  0)
  41-C(  6  5  0)  42-C(  7  5  0)  43-R(  6  6  0)  44-C(  3  2  1)
  45-C(  4  2  1)  46-C(  5  2  1)  47-C(  6  2  1)  48-C(  7  2  1)
  49-C(  4  3  1)  50-C(  5  3  1)  51-C(  6  3  1)  52-C(  7  3  1)
  53-C(  8  3  1)  54-C(  9  3  1)  55-C( 10  3  1)  56-C(  5  4  1)
  57-C(  6  4  1)  58-C(  7  4  1)  59-C(  8  4  1)  60-C(  9  4  1)
  61-C(  6  5  1)  62-C(  7  5  1)  63-C(  8  5  1)  64-C(  7  6  1)
  65-C(  6  4  2)  66-C(  7  4  2)  67-C(  8  4  2)  68-C(  7  5  2)
  69-C(  8  5  2)  70-C(  9  5  2)  71-C(  8  6  2)  72-C(  9  6  3)

 FERMI ENERGY AND DENSITY MATRIX CALCULATION ON COMPUTED EIGENVECTORS
 DENSITY MATRIX AT SCF CYCLE ( 22+1)

 INSULATING STATE
 TOP OF VALENCE BANDS -    BAND     14; K    1; EIG -3.9685829E-01 AU
 BOTTOM OF VIRTUAL BANDS - BAND     15; K    1; EIG  1.2859066E-01 AU

 CORE DENSITY MATRIX CALCULATION
 TTTTTTTTTTTTTTTTTTTTTTTTTTTTTT NEWK        TELAPSE        0.34 TCPU        0.34
 ###############################################################################

 TOTAL AND PROJECTED DENSITY OF STATES - FOURIER LEGENDRE METHOD
 FROM BAND   11 TO BAND   14 ENERGY RANGE -0.10285E+01 -0.39686E+00

 ###############################################################################

 NUMBER OF LEGENDRE POLYNOMIALS              12
 NUMBER OF SYMMETRIZED PWS FOR EXPANSION     72
 NUMBER OF K POINTS OF SECONDARY NET         72
 NUMBER OF PROJECTIONS                        0
 NUMBER OF ENERGY POINTS                    298

 BAND     INTEGRATED DOSS PER PROJECTION AND TOTAL
           T
  11   2.00000
  12   2.00000
  13   2.00000
  14   2.00000

 *** INTEGRATED DENSITIES IN THE ENERGY INTERVAL PER PROJECTION AND TOTAL
       T
    8.00000

 *** ENERGY      TOTAL DENSITY OF STATES - FULL SCALE =   160.18198 AU

  -1.02431  |                  T                                                                                                    
  -1.01798  |                                               T                                                                       
  -1.01164  |                                                                                                                      T
  -1.00530  T                                                                                                                       
  -0.99896  T                                                                                                                       
  -0.99262  T                                                                                                                       
  -0.98629  T                                                                                                                       
  -0.97995  T                                                                                                                       
  -0.97361  T                                                                                                                       
  -0.96727  T                                                                                                                       
  -0.96093  T                                                                                                                       
  -0.95460  T                                                                                                                       
  -0.94826  T                                                                                                                       
  -0.94192  T                                                                                                                       
  -0.93558  T                                                                                                                       
  -0.92925  T                                                                                                                       
  -0.92291  T                                                                                                                       
  -0.91657  T                                                                                                                       
  -0.91023  T                                                                                                                       
  -0.90389  T                                                                                                                       
  -0.89756  T                                                                                                                       
  -0.89122  T                                                                                                                       
  -0.88488  T                                                                                                                       
  -0.87854  T                                                                                                                       
  -0.87220  T                                                                                                                       
  -0.86587  T                                                                                                                       
  -0.85953  T                                                                                                                       
  -0.85319  T                                                                                                                       
  -0.84685  T                                                                                                                       
  -0.84051  T                                                                                                                       
  -0.83418  T                                                                                                                       
  -0.82784  T                                                                                                                       
  -0.82150  T                                                                                                                       
  -0.81516  T                                                                                                                       
  -0.80882  T                                                                                                                       
  -0.80249  T                                                                                                                       
  -0.79615  T                                                                                                                       
  -0.78981  T                                                                                                                       
  -0.78347  T                                                                                                                       
  -0.77713  T                                                                                                                       
  -0.77080  T                                                                                                                       
  -0.76446  T                                                                                                                       
  -0.75812  T                                                                                                                       
  -0.75178  T                                                                                                                       
  -0.74544  T                                                                                                                       
  -0.73911  T                                                                                                                       
  -0.73277  T                                                                                                                       
  -0.72643  T                                                                                                                       
  -0.72009  T                                                                                                                       
  -0.71376  T                                                                                                                       
  -0.70742  T                                                                                                                       
  -0.70108  T                                                                                                                       
  -0.69474  T                                                                                                                       
  -0.68840  T                                                                                                                       
  -0.68207  T                                                                                                                       
  -0.67573  T                                                                                                                       
  -0.66939  T                                                                                                                       
  -0.66305  T                                                                                                                       
  -0.65671  T                                                                                                                       
  -0.65038  T                                                                                                                       
  -0.64404  T                                                                                                                       
  -0.63770  T                                                                                                                       
  -0.63136  T                                                                                                                       
  -0.62502  T                                                                                                                       
  -0.61869  T                                                                                                                       
  -0.61235  T                                                                                                                       
  -0.60601  T                                                                                                                       
  -0.59967  T                                                                                                                       
  -0.59333  T                                                                                                                       
  -0.58700  T                                                                                                                       
  -0.58066  T                                                                                                                       
  -0.57432  T                                                                                                                       
  -0.56798  T                                                                                                                       
  -0.56164  T                                                                                                                       
  -0.55531  T                                                                                                                       
  -0.54897  T                                                                                                                       
  -0.54263  T                                                                                                                       
  -0.53629  T                                                                                                                       
  -0.52996  T                                                                                                                       
  -0.52362  T                                                                                                                       
  -0.51728  T                                                                                                                       
  -0.51094  T                                                                                                                       
  -0.50460  T                                                                                                                       
  -0.49827  T                                                                                                                       
  -0.49193  T                                                                                                                       
  -0.48559  |     T                                                                                                                 
  -0.47925  |          T                                                                                                            
  -0.47291  |                                               T                                                                       
  -0.46658  |                                                                        T                                              
  -0.46024  |                                              T                                                                        
  -0.45390  |               T                                                                                                       
  -0.44756  |                            T                                                                                          
  -0.44122  |                                T                                                                                      
  -0.43489  |                                          T                                                                            
  -0.42855  |                                                          T                                                            
  -0.42221  |                                                                                             T                         
  -0.41587  |                                                                                                   T                   
  -0.40953  |                                                                                      T                                
  -0.40320  |                                       T                                                                               

  302 DATA WRITTEN ON UNIT 25 WITH THE FOLLOWING HEADER :
 -%-0DOSS      1   35    0    0    0    0
 TTTTTTTTTTTTTTTTTTTTTTTTTTTTTT DOSS        TELAPSE        0.35 TCPU        0.35
 ENDPROP   
 TTTTTTTTTTTTTTTTTTTTTTTTTTTTTT END         TELAPSE        0.35 TCPU        0.35
 EEEEEEEEEE TERMINATION  DATE 26 05 2016 TIME 13:13:06.9
to 26.5.2016 13.13.06 +0300
Contents of temporary directory:
yhteensä 3380
-rw-r--r-- 1 pupu pupu   16042 touko 26 13:13 BAND.DAT
-rw-r--r-- 1 pupu pupu     300 touko 26 13:13 BORN.DAT
-rw-r--r-- 1 pupu pupu    7679 touko 26 13:13 DOSS.DAT
-rw-r--r-- 1 pupu pupu  835800 touko 26 13:13 fort.10
-rw-r--r-- 1 pupu pupu   41640 touko 26 13:13 fort.11
-rw-r--r-- 1 pupu pupu  756816 touko 26 13:13 fort.13
-rw-r--r-- 1 pupu pupu   17589 touko 26 13:13 fort.25
-rw-r--r-- 1 pupu pupu   41640 touko 26 13:13 fort.3
-rw-r--r-- 1 pupu pupu  120304 touko 26 13:13 fort.61
-rw-r--r-- 1 pupu pupu   67808 touko 26 13:13 fort.62
-rw-r--r-- 1 pupu pupu 1382376 touko 26 13:13 fort.8
-rw-r--r-- 1 pupu pupu  125356 touko 26 13:11 fort.9
-rw-r--r-- 1 pupu pupu    3614 touko 26 13:13 FREQINFO.DAT
-rw-r--r-- 1 pupu pupu     765 touko 26 13:13 HESSFREQ.DAT
-rw-r--r-- 1 pupu pupu       0 touko 26 13:11 MULLIKEN.DAT
-rw-r--r-- 1 pupu pupu       0 touko 26 13:13 OPTalist
-rw-r--r-- 1 pupu pupu       0 touko 26 13:13 OPTclist
-rw-r--r-- 1 pupu pupu       0 touko 26 13:13 scanlist
-rw-r--r-- 1 pupu pupu    9116 touko 26 13:13 SCFOUT.LOG
file fort.13 saved as /home/pupu/crystal/src/NaCl.f13
file fort.25 saved as /home/pupu/crystal/src/NaCl.f25
file BAND.DAT saved as /home/pupu/crystal/src/NaCl_dat.BAND
file DOSS.DAT saved as /home/pupu/crystal/src/NaCl_dat.DOSS
output of Crgra in file /home/pupu/crystal/src/NaCl.outg
doss postscript file /home/pupu/crystal/src/NaCl_doss06.ps
temporary directory /home/pupu/crystal/src/tmp5114_pupu removed
