 +-------------------------------------------------+
 |                                                 |
 |      CCC   AA    SSS  TTTTT  EEEEE  PPPP        |
 |     C     A  A  S       T    E      P   P       |
 |     C     AAAA   SS     T    EEE    PPPP        |
 |     C     A  A     S    T    E      P           |
 |      CCC  A  A  SSS     T    EEEEE  P           |
 |                                                 |
 +-------------------------------------------------+
 |                                                 |
 | Welcome to Academic Release CASTEP version 16.1 |          
 | Ab Initio Total Energy Program                  |
 |                                                 |
 | Authors:                                        |
 | M. Segall, M. Probert, C. Pickard, P. Hasnip,   |
 | S. Clark, K. Refson, J. R. Yates, M. Payne      |
 |                                                 |
 | Contributors:                                   |
 | P. Lindan, P. Haynes, J. White, V. Milman,      |
 | N. Govind, M. Gibson, P. Tulip, V. Cocula,      |
 | B. Montanari, D. Quigley, M. Glover,            |
 | L. Bernasconi, A. Perlov, M. Plummer,           |
 | E. McNellis, J. Meyer, J. Gale, D. Jochym       |
 | J. Aarons, B. Walker, R. Gillen, D. Jones       |
 | T. Green, I. J. Bush, C. J. Armstrong,          |
 | E. J. Higgins, E. L. Brown, M. S. McFly         |
 |                                                 |
 | Copyright (c) 2000 - 2015                       |
 |                                                 |
 |     Distributed under the terms of an           |
 |     Agreement between the United Kingdom        |
 |     Car-Parrinello (UKCP) Consortium,           |
 |     Daresbury Laboratory and Accelrys, Inc.     |
 |                                                 |
 | Please cite                                     |
 |                                                 |
 |     "First principles methods using CASTEP"     |
 |                                                 |
 |         Zeitschrift fuer Kristallographie       |
 |           220(5-6) pp. 567-570 (2005)           |
 |                                                 |
 | S. J. Clark, M. D. Segall, C. J. Pickard,       |
 | P. J. Hasnip, M. J. Probert, K. Refson,         |
 | M. C. Payne                                     |
 |                                                 |
 |       in all publications arising from          |
 |              your use of CASTEP                 |
 |                                                 |
 +-------------------------------------------------+


 Compiled for darwin_x86_64_gfortran5.0 on Fri, 19 Feb 2016 13:44:46 +0000
 from code version Version unavailable
 Compiler: GNU Fortran 5.3.0; Optimisation: intermediate
 MATHLIBS: default (LAPACK version 3.2.1)
 FFT Lib : default
 Fundamental constants values: CODATA 2010

 Run started: Tue, 15 Mar 2016 13:35:39 +0000

 Atomic calculation performed for Fe: 1s2 2s2 2p6 3s2 3p6 3d6 4s2

 Converged in 99 iterations to an ae energy of -34563.483 eV

   ============================================================                
   | Pseudopotential Report - Date of generation 15-03-2016   |                
   ------------------------------------------------------------                
   | Element: Fe Ionic charge:  8.00 Level of theory: LDA     |                
   | Atomic Solver: Koelling-Harmon                           |                
   |                                                          |                
   |               Reference Electronic Structure             |                
   |         Orbital         Occupation         Energy        |                
   |            3d              6.000           -0.285        |                
   |            4s              2.000           -0.202        |                
   |                                                          |                
   |                 Pseudopotential Definition               |                
   |        Beta     l      e      Rc     scheme   norm       |                
   |          1      0   -0.202   1.997     qc      0         |                
   |          2      0    0.250   1.997     qc      0         |                
   |          3      1    0.000   1.997     qc      0         |                
   |          4      1    0.250   1.997     qc      0         |                
   |          5      2   -0.285   1.997     qc      0         |                
   |          6      2    0.250   1.997     qc      0         |                
   |         loc     3    0.000   2.207     pn      0         |                
   |                                                          |                
   | Augmentation charge Rinner = 1.000                       |                
   | Partial core correction Rc = 1.000                       |                
   ------------------------------------------------------------                
   | "3|2.2|2.0|1.0|9|10|11|40:41:32(qc=5.5)"                 |                
   ------------------------------------------------------------                
   |      Author: Chris J. Pickard, Cambridge University      |                
   ============================================================                

 Pseudo atomic calculation performed for Fe 3d6 4s2

 Converged in 29 iterations to a total energy of -847.7109 eV

 Calculation not parallelised.

 ************************************ Title ************************************
 

 ***************************** General Parameters ******************************
  
 output verbosity                               : normal  (1)
 write checkpoint data to                       : Fe.check
 type of calculation                            : band structure
 stress calculation                             : off
 density difference calculation                 : off
 electron localisation func (ELF) calculation   : off
 Hirshfeld analysis                             : off
 unlimited duration calculation
 timing information                             : on
 memory usage estimate                          : on
 write final potential to formatted file        : off
 write final density to formatted file          : off
 write BibTeX reference list                    : on
 write OTFG pseudopotential files               : on
 checkpoint writing                             : both castep_bin and check files
  
 output         length unit                     : A
 output           mass unit                     : amu
 output           time unit                     : ps
 output         charge unit                     : e
 output           spin unit                     : hbar/2
 output         energy unit                     : eV
 output          force unit                     : eV/A
 output       velocity unit                     : A/ps
 output       pressure unit                     : GPa
 output     inv_length unit                     : 1/A
 output      frequency unit                     : cm-1
 output force constant unit                     : eV/A**2
 output         volume unit                     : A**3
 output   IR intensity unit                     : (D/A)**2/amu
 output         dipole unit                     : D
 output         efield unit                     : eV/A/e
 output        entropy unit                     : J/mol/K
  
 wavefunctions paging                           : none
 random number generator seed                   : randomised (133539139)
 data distribution                              : optimal for this architecture
 optimization strategy                          : maximize speed(+++)

 *********************** Exchange-Correlation Parameters ***********************
  
 using functional                               : Local Density Approximation
 relativistic treatment                         : Koelling-Harmon
 DFT+D: Semi-empirical dispersion correction    : off

 ************************* Pseudopotential Parameters **************************
  
 pseudopotential representation                 : reciprocal space
 <beta|phi> representation                      : reciprocal space
 spin-orbit coupling                            : off

 **************************** Basis Set Parameters *****************************
  
 basis set accuracy                             : MEDIUM
 plane wave basis set cut-off                   :   272.1139   eV
 size of standard grid                          :     1.7500
 size of   fine   gmax                          :    14.7894   1/A
 finite basis set correction                    : none

 **************************** Electronic Parameters ****************************
  
 number of  electrons                           :  8.000    
 net charge of system                           :  0.000    
 net spin   of system                           :  1.000    
 number of  up  spins                           :  4.500    
 number of down spins                           :  3.500    
 treating system as spin-polarized
 number of bands                                :          9

 ********************* Electronic Minimization Parameters **********************
  
 Method: Treating system as metallic with density mixing treatment of electrons,
         and number of  SD  steps               :          1
         and number of  CG  steps               :          4
  
 total energy / atom convergence tol.           : 0.1000E-04   eV
 eigen-energy convergence tolerance             : 0.1000E-05   eV
 max force / atom convergence tol.              : ignored
 convergence tolerance window                   :          3   cycles
 max. number of SCF cycles                      :         30
 number of fixed-spin iterations                :         10
 smearing scheme                                : Gaussian
 smearing width                                 : 0.2000       eV
 Fermi energy convergence tolerance             : 0.2721E-13   eV
 periodic dipole correction                     : NONE

 ************************** Density Mixing Parameters **************************
  
 density-mixing scheme                          : Broyden
 max. length of mixing history                  :         20
 charge density mixing amplitude                : 0.8000    
   spin density mixing amplitude                :  2.000    

 *********************** Population Analysis Parameters ************************
  
 Population analysis with cutoff                :  3.000       A

 ************************** Band Structure Parameters **************************
  
 max. number of iterations                      :         60
 max. CG steps in BS calc                       :         25
 number of bands / k-point                      :          6
 band convergence tolerance                     : 0.1000E-05   eV
 write orbitals file                            : on

 *******************************************************************************
  

                           -------------------------------
                                      Unit Cell
                           -------------------------------
        Real Lattice(A)                      Reciprocal Lattice(1/A)
  -1.4332000   1.4332000   1.4332000        0.0000000   2.1920127   2.1920127
   1.4332000  -1.4332000   1.4332000        2.1920127  -0.0000000   2.1920127
   1.4332000   1.4332000  -1.4332000        2.1920127   2.1920127  -0.0000000

                       Lattice parameters(A)       Cell Angles
                    a =    2.482375          alpha =  109.471221
                    b =    2.482375          beta  =  109.471221
                    c =    2.482375          gamma =  109.471221

                       Current cell volume =   11.775528       A**3

                           -------------------------------
                                     Cell Contents
                           -------------------------------
                         Total number of ions in cell =    1
                      Total number of species in cell =    1
                        Max number of any one species =    1

            xxxxxxxxxxxxxxxxxxxxxxxxxxxxxxxxxxxxxxxxxxxxxxxxxxxxxxxxxxxx
            x  Element    Atom        Fractional coordinates of atoms  x
            x            Number           u          v          w      x
            x----------------------------------------------------------x
            x  Fe           1         0.000000   0.000000   0.000000   x 
            xxxxxxxxxxxxxxxxxxxxxxxxxxxxxxxxxxxxxxxxxxxxxxxxxxxxxxxxxxxx


                         No user defined ionic velocities

                           -------------------------------
                                   Details of Species
                           -------------------------------

                               Mass of species in AMU
                                    Fe   55.8450000

                          Electric Quadrupole Moment (Barn)
                                    Fe    0.1600000 Isotope 57

                          Files used for pseudopotentials:
                                    Fe 3|2.2|2.0|1.0|9|10|11|40:41:32(qc=5.5)

                           -------------------------------
                              k-Points For BZ Sampling
                           -------------------------------
                       MP grid size for SCF calculation is  8  8  8
                            with an offset of   0.000  0.000  0.000
                       Number of kpoints used =            26

                           -------------------------------
                               Symmetry and Constraints
                           -------------------------------

                      Maximum deviation from symmetry = 0.470004E-15     ANG

                      Number of symmetry operations   =          48
                      Number of ionic constraints     =           3
                      Point group of crystal =    32: Oh, m-3m, 4/m -3 2/m
                      Space group of crystal =   229: Im-3m, -I 4 2 3

             Set iprint > 1 for details on symmetry rotations/translations

                         Centre of mass is constrained
             Set iprint > 1 for details of linear ionic constraints

                         Number of cell constraints= 5
                         Cell constraints are:  1 1 1 0 0 0

                         External pressure/stress (GPa)
                          0.00000   0.00000   0.00000
                                    0.00000   0.00000
                                              0.00000
  
+---------------- MEMORY AND SCRATCH DISK ESTIMATES PER PROCESS --------------+
|                                                     Memory          Disk    |
| Baseline code, static data and system overhead        0.0 MB         0.0 MB |
| BLAS internal memory storage                          0.0 MB         0.0 MB |
| Model and support data                               19.2 MB         0.0 MB |
| Electronic energy minimisation requirements           2.6 MB         0.0 MB |
| Force calculation requirements                        0.3 MB         0.0 MB |
|                                               ----------------------------- |
| Approx. total storage required per process           21.8 MB         0.0 MB |
|                                                                             |
| Requirements will fluctuate during execution and may exceed these estimates |
+-----------------------------------------------------------------------------+
------------------------------------------------------------------------ <-- SCF
SCF loop      Energy           Fermi           Energy gain       Timer   <-- SCF
                               energy          per atom          (sec)   <-- SCF
------------------------------------------------------------------------ <-- SCF
Initial  -7.21539385E+002  0.00000000E+000                         8.03  <-- SCF
      1  -8.46908700E+002  8.34487815E+000   1.25369315E+002       8.33  <-- SCF
      2  -8.57282213E+002  6.58599599E+000   1.03735129E+001       8.58  <-- SCF
      3  -8.57526963E+002  6.54790476E+000   2.44749582E-001       8.89  <-- SCF
      4  -8.57681929E+002  5.16281708E+000   1.54966414E-001       9.17  <-- SCF
      5  -8.57523720E+002  6.02652167E+000  -1.58208992E-001       9.43  <-- SCF
      6  -8.57523924E+002  5.99059852E+000   2.04263503E-004       9.76  <-- SCF
      7  -8.57524046E+002  5.98928966E+000   1.21456822E-004      10.04  <-- SCF
      8  -8.57524210E+002  5.98713574E+000   1.63945612E-004      10.26  <-- SCF
      9  -8.57524214E+002  5.98650109E+000   3.80405102E-006      10.43  <-- SCF
     10  -8.57608094E+002  5.99494362E+000   8.38807739E-002      10.60  <-- SCF
     11  -8.57759172E+002  6.06271409E+000   1.51078153E-001      10.88  <-- SCF
     12  -8.57792453E+002  6.06999862E+000   3.32810269E-002      11.14  <-- SCF
     13  -8.57796845E+002  5.99960577E+000   4.39152977E-003      11.41  <-- SCF
     14  -8.57796477E+002  6.04307302E+000  -3.68066987E-004      11.70  <-- SCF
     15  -8.57796630E+002  6.02941342E+000   1.52809000E-004      11.95  <-- SCF
     16  -8.57796653E+002  6.03079524E+000   2.34135380E-005      12.13  <-- SCF
     17  -8.57796651E+002  6.03208943E+000  -1.76267077E-006      12.29  <-- SCF
     18  -8.57796652E+002  6.03244384E+000   8.83489821E-007      12.44  <-- SCF
------------------------------------------------------------------------ <-- SCF
 
Integrated Spin Density     =     2.16929     hbar/2                        
Integrated |Spin Density|   =     2.24132     hbar/2                        
 
Final energy, E             =  -857.7798150181     eV
Final free energy (E-TS)    =  -857.7966523000     eV
(energies not corrected for finite basis set)
 
NB est. 0K energy (E-0.5TS)      =  -857.7882336591     eV
 

Writing analysis data to Fe.castep_bin

Writing model to Fe.check
  
+---------------- MEMORY AND SCRATCH DISK ESTIMATES PER PROCESS --------------+
|                                                     Memory          Disk    |
| Baseline code, static data and system overhead        0.0 MB         0.0 MB |
| BLAS internal memory storage                          0.0 MB         0.0 MB |
| Model and support data                               25.1 MB         0.0 MB |
| Band structure calculation requirements              10.6 MB         0.0 MB |
| Force calculation requirements                        0.3 MB         0.0 MB |
|                                               ----------------------------- |
| Approx. total storage required per process           35.7 MB         0.0 MB |
|                                                                             |
| Requirements will fluctuate during execution and may exceed these estimates |
+-----------------------------------------------------------------------------+
  =====================================================================
  +  Fermi energy for spin  up  electrons is:     6.03244 eV          +
  +  Fermi energy for spin down electrons is:     6.03244 eV          +
  +                                                                   +
  +       B A N D   S T R U C T U R E   C A L C U L A T I O N         +
  +      (General k-point calculation - complex wavefunctions)        +
  +                                                                   +
  + ================================================================= +
  +                                                                   +
  +     Band Structure Calculation: Progress report on root process   +
  +                                                                   +
  +   There are  118 BS k-points. Root process contains  118 of them. +
  +                                                                   +
  +   Spin= 1 of  2, K-point=   1 of  118 completed, Time:     0.03s. +
  +   Spin= 1 of  2, K-point=   2 of  118 completed, Time:     0.02s. +
  +   Spin= 1 of  2, K-point=   3 of  118 completed, Time:     0.02s. +
  +   Spin= 1 of  2, K-point=   4 of  118 completed, Time:     0.02s. +
  +   Spin= 1 of  2, K-point=   5 of  118 completed, Time:     0.02s. +
  +   Spin= 1 of  2, K-point=   6 of  118 completed, Time:     0.02s. +
  +   Spin= 1 of  2, K-point=   7 of  118 completed, Time:     0.03s. +
  +   Spin= 1 of  2, K-point=   8 of  118 completed, Time:     0.03s. +
  +   Spin= 1 of  2, K-point=   9 of  118 completed, Time:     0.02s. +
  +   Spin= 1 of  2, K-point=  10 of  118 completed, Time:     0.02s. +
  +   Spin= 1 of  2, K-point=  11 of  118 completed, Time:     0.02s. +
  +   Spin= 1 of  2, K-point=  12 of  118 completed, Time:     0.02s. +
  +   Spin= 1 of  2, K-point=  13 of  118 completed, Time:     0.02s. +
  +   Spin= 1 of  2, K-point=  14 of  118 completed, Time:     0.03s. +
  +   Spin= 1 of  2, K-point=  15 of  118 completed, Time:     0.02s. +
  +   Spin= 1 of  2, K-point=  16 of  118 completed, Time:     0.02s. +
  +   Spin= 1 of  2, K-point=  17 of  118 completed, Time:     0.02s. +
  +   Spin= 1 of  2, K-point=  18 of  118 completed, Time:     0.02s. +
  +   Spin= 1 of  2, K-point=  19 of  118 completed, Time:     0.03s. +
  +   Spin= 1 of  2, K-point=  20 of  118 completed, Time:     0.02s. +
  +   Spin= 1 of  2, K-point=  21 of  118 completed, Time:     0.03s. +
  +   Spin= 1 of  2, K-point=  22 of  118 completed, Time:     0.02s. +
  +   Spin= 1 of  2, K-point=  23 of  118 completed, Time:     0.02s. +
  +   Spin= 1 of  2, K-point=  24 of  118 completed, Time:     0.02s. +
  +   Spin= 1 of  2, K-point=  25 of  118 completed, Time:     0.02s. +
  +   Spin= 1 of  2, K-point=  26 of  118 completed, Time:     0.03s. +
  +   Spin= 1 of  2, K-point=  27 of  118 completed, Time:     0.02s. +
  +   Spin= 1 of  2, K-point=  28 of  118 completed, Time:     0.03s. +
  +   Spin= 1 of  2, K-point=  29 of  118 completed, Time:     0.02s. +
  +   Spin= 1 of  2, K-point=  30 of  118 completed, Time:     0.02s. +
  +   Spin= 1 of  2, K-point=  31 of  118 completed, Time:     0.02s. +
  +   Spin= 1 of  2, K-point=  32 of  118 completed, Time:     0.02s. +
  +   Spin= 1 of  2, K-point=  33 of  118 completed, Time:     0.02s. +
  +   Spin= 1 of  2, K-point=  34 of  118 completed, Time:     0.02s. +
  +   Spin= 1 of  2, K-point=  35 of  118 completed, Time:     0.02s. +
  +   Spin= 1 of  2, K-point=  36 of  118 completed, Time:     0.02s. +
  +   Spin= 1 of  2, K-point=  37 of  118 completed, Time:     0.03s. +
  +   Spin= 1 of  2, K-point=  38 of  118 completed, Time:     0.03s. +
  +   Spin= 1 of  2, K-point=  39 of  118 completed, Time:     0.02s. +
  +   Spin= 1 of  2, K-point=  40 of  118 completed, Time:     0.03s. +
  +   Spin= 1 of  2, K-point=  41 of  118 completed, Time:     0.03s. +
  +   Spin= 1 of  2, K-point=  42 of  118 completed, Time:     0.03s. +
  +   Spin= 1 of  2, K-point=  43 of  118 completed, Time:     0.03s. +
  +   Spin= 1 of  2, K-point=  44 of  118 completed, Time:     0.02s. +
  +   Spin= 1 of  2, K-point=  45 of  118 completed, Time:     0.02s. +
  +   Spin= 1 of  2, K-point=  46 of  118 completed, Time:     0.03s. +
  +   Spin= 1 of  2, K-point=  47 of  118 completed, Time:     0.03s. +
  +   Spin= 1 of  2, K-point=  48 of  118 completed, Time:     0.02s. +
  +   Spin= 1 of  2, K-point=  49 of  118 completed, Time:     0.03s. +
  +   Spin= 1 of  2, K-point=  50 of  118 completed, Time:     0.03s. +
  +   Spin= 1 of  2, K-point=  51 of  118 completed, Time:     0.03s. +
  +   Spin= 1 of  2, K-point=  52 of  118 completed, Time:     0.03s. +
  +   Spin= 1 of  2, K-point=  53 of  118 completed, Time:     0.03s. +
  +   Spin= 1 of  2, K-point=  54 of  118 completed, Time:     0.03s. +
  +   Spin= 1 of  2, K-point=  55 of  118 completed, Time:     0.02s. +
  +   Spin= 1 of  2, K-point=  56 of  118 completed, Time:     0.03s. +
  +   Spin= 1 of  2, K-point=  57 of  118 completed, Time:     0.02s. +
  +   Spin= 1 of  2, K-point=  58 of  118 completed, Time:     0.03s. +
  +   Spin= 1 of  2, K-point=  59 of  118 completed, Time:     0.03s. +
  +   Spin= 1 of  2, K-point=  60 of  118 completed, Time:     0.03s. +
  +   Spin= 1 of  2, K-point=  61 of  118 completed, Time:     0.03s. +
  +   Spin= 1 of  2, K-point=  62 of  118 completed, Time:     0.03s. +
  +   Spin= 1 of  2, K-point=  63 of  118 completed, Time:     0.03s. +
  +   Spin= 1 of  2, K-point=  64 of  118 completed, Time:     0.03s. +
  +   Spin= 1 of  2, K-point=  65 of  118 completed, Time:     0.03s. +
  +   Spin= 1 of  2, K-point=  66 of  118 completed, Time:     0.03s. +
  +   Spin= 1 of  2, K-point=  67 of  118 completed, Time:     0.03s. +
  +   Spin= 1 of  2, K-point=  68 of  118 completed, Time:     0.03s. +
  +   Spin= 1 of  2, K-point=  69 of  118 completed, Time:     0.03s. +
  +   Spin= 1 of  2, K-point=  70 of  118 completed, Time:     0.03s. +
  +   Spin= 1 of  2, K-point=  71 of  118 completed, Time:     0.03s. +
  +   Spin= 1 of  2, K-point=  72 of  118 completed, Time:     0.03s. +
  +   Spin= 1 of  2, K-point=  73 of  118 completed, Time:     0.02s. +
  +   Spin= 1 of  2, K-point=  74 of  118 completed, Time:     0.03s. +
  +   Spin= 1 of  2, K-point=  75 of  118 completed, Time:     0.03s. +
  +   Spin= 1 of  2, K-point=  76 of  118 completed, Time:     0.03s. +
  +   Spin= 1 of  2, K-point=  77 of  118 completed, Time:     0.03s. +
  +   Spin= 1 of  2, K-point=  78 of  118 completed, Time:     0.03s. +
  +   Spin= 1 of  2, K-point=  79 of  118 completed, Time:     0.03s. +
  +   Spin= 1 of  2, K-point=  80 of  118 completed, Time:     0.02s. +
  +   Spin= 1 of  2, K-point=  81 of  118 completed, Time:     0.03s. +
  +   Spin= 1 of  2, K-point=  82 of  118 completed, Time:     0.02s. +
  +   Spin= 1 of  2, K-point=  83 of  118 completed, Time:     0.03s. +
  +   Spin= 1 of  2, K-point=  84 of  118 completed, Time:     0.03s. +
  +   Spin= 1 of  2, K-point=  85 of  118 completed, Time:     0.03s. +
  +   Spin= 1 of  2, K-point=  86 of  118 completed, Time:     0.03s. +
  +   Spin= 1 of  2, K-point=  87 of  118 completed, Time:     0.03s. +
  +   Spin= 1 of  2, K-point=  88 of  118 completed, Time:     0.03s. +
  +   Spin= 1 of  2, K-point=  89 of  118 completed, Time:     0.02s. +
  +   Spin= 1 of  2, K-point=  90 of  118 completed, Time:     0.03s. +
  +   Spin= 1 of  2, K-point=  91 of  118 completed, Time:     0.03s. +
  +   Spin= 1 of  2, K-point=  92 of  118 completed, Time:     0.02s. +
  +   Spin= 1 of  2, K-point=  93 of  118 completed, Time:     0.03s. +
  +   Spin= 1 of  2, K-point=  94 of  118 completed, Time:     0.03s. +
  +   Spin= 1 of  2, K-point=  95 of  118 completed, Time:     0.03s. +
  +   Spin= 1 of  2, K-point=  96 of  118 completed, Time:     0.02s. +
  +   Spin= 1 of  2, K-point=  97 of  118 completed, Time:     0.03s. +
  +   Spin= 1 of  2, K-point=  98 of  118 completed, Time:     0.03s. +
  +   Spin= 1 of  2, K-point=  99 of  118 completed, Time:     0.02s. +
  +   Spin= 1 of  2, K-point= 100 of  118 completed, Time:     0.03s. +
  +   Spin= 1 of  2, K-point= 101 of  118 completed, Time:     0.03s. +
  +   Spin= 1 of  2, K-point= 102 of  118 completed, Time:     0.03s. +
  +   Spin= 1 of  2, K-point= 103 of  118 completed, Time:     0.02s. +
  +   Spin= 1 of  2, K-point= 104 of  118 completed, Time:     0.03s. +
  +   Spin= 1 of  2, K-point= 105 of  118 completed, Time:     0.03s. +
  +   Spin= 1 of  2, K-point= 106 of  118 completed, Time:     0.03s. +
  +   Spin= 1 of  2, K-point= 107 of  118 completed, Time:     0.03s. +
  +   Spin= 1 of  2, K-point= 108 of  118 completed, Time:     0.03s. +
  +   Spin= 1 of  2, K-point= 109 of  118 completed, Time:     0.03s. +
  +   Spin= 1 of  2, K-point= 110 of  118 completed, Time:     0.03s. +
  +   Spin= 1 of  2, K-point= 111 of  118 completed, Time:     0.03s. +
  +   Spin= 1 of  2, K-point= 112 of  118 completed, Time:     0.02s. +
  +   Spin= 1 of  2, K-point= 113 of  118 completed, Time:     0.03s. +
  +   Spin= 1 of  2, K-point= 114 of  118 completed, Time:     0.03s. +
  +   Spin= 1 of  2, K-point= 115 of  118 completed, Time:     0.03s. +
  +   Spin= 1 of  2, K-point= 116 of  118 completed, Time:     0.03s. +
  +   Spin= 1 of  2, K-point= 117 of  118 completed, Time:     0.03s. +
  +   Spin= 1 of  2, K-point= 118 of  118 completed, Time:     0.03s. +
  +   Spin= 2 of  2, K-point=   1 of  118 completed, Time:     0.02s. +
  +   Spin= 2 of  2, K-point=   2 of  118 completed, Time:     0.03s. +
  +   Spin= 2 of  2, K-point=   3 of  118 completed, Time:     0.02s. +
  +   Spin= 2 of  2, K-point=   4 of  118 completed, Time:     0.03s. +
  +   Spin= 2 of  2, K-point=   5 of  118 completed, Time:     0.03s. +
  +   Spin= 2 of  2, K-point=   6 of  118 completed, Time:     0.03s. +
  +   Spin= 2 of  2, K-point=   7 of  118 completed, Time:     0.02s. +
  +   Spin= 2 of  2, K-point=   8 of  118 completed, Time:     0.02s. +
  +   Spin= 2 of  2, K-point=   9 of  118 completed, Time:     0.02s. +
  +   Spin= 2 of  2, K-point=  10 of  118 completed, Time:     0.02s. +
  +   Spin= 2 of  2, K-point=  11 of  118 completed, Time:     0.02s. +
  +   Spin= 2 of  2, K-point=  12 of  118 completed, Time:     0.02s. +
  +   Spin= 2 of  2, K-point=  13 of  118 completed, Time:     0.02s. +
  +   Spin= 2 of  2, K-point=  14 of  118 completed, Time:     0.02s. +
  +   Spin= 2 of  2, K-point=  15 of  118 completed, Time:     0.02s. +
  +   Spin= 2 of  2, K-point=  16 of  118 completed, Time:     0.02s. +
  +   Spin= 2 of  2, K-point=  17 of  118 completed, Time:     0.03s. +
  +   Spin= 2 of  2, K-point=  18 of  118 completed, Time:     0.03s. +
  +   Spin= 2 of  2, K-point=  19 of  118 completed, Time:     0.02s. +
  +   Spin= 2 of  2, K-point=  20 of  118 completed, Time:     0.02s. +
  +   Spin= 2 of  2, K-point=  21 of  118 completed, Time:     0.03s. +
  +   Spin= 2 of  2, K-point=  22 of  118 completed, Time:     0.03s. +
  +   Spin= 2 of  2, K-point=  23 of  118 completed, Time:     0.03s. +
  +   Spin= 2 of  2, K-point=  24 of  118 completed, Time:     0.02s. +
  +   Spin= 2 of  2, K-point=  25 of  118 completed, Time:     0.02s. +
  +   Spin= 2 of  2, K-point=  26 of  118 completed, Time:     0.02s. +
  +   Spin= 2 of  2, K-point=  27 of  118 completed, Time:     0.02s. +
  +   Spin= 2 of  2, K-point=  28 of  118 completed, Time:     0.02s. +
  +   Spin= 2 of  2, K-point=  29 of  118 completed, Time:     0.02s. +
  +   Spin= 2 of  2, K-point=  30 of  118 completed, Time:     0.03s. +
  +   Spin= 2 of  2, K-point=  31 of  118 completed, Time:     0.02s. +
  +   Spin= 2 of  2, K-point=  32 of  118 completed, Time:     0.02s. +
  +   Spin= 2 of  2, K-point=  33 of  118 completed, Time:     0.02s. +
  +   Spin= 2 of  2, K-point=  34 of  118 completed, Time:     0.02s. +
  +   Spin= 2 of  2, K-point=  35 of  118 completed, Time:     0.03s. +
  +   Spin= 2 of  2, K-point=  36 of  118 completed, Time:     0.02s. +
  +   Spin= 2 of  2, K-point=  37 of  118 completed, Time:     0.02s. +
  +   Spin= 2 of  2, K-point=  38 of  118 completed, Time:     0.02s. +
  +   Spin= 2 of  2, K-point=  39 of  118 completed, Time:     0.02s. +
  +   Spin= 2 of  2, K-point=  40 of  118 completed, Time:     0.03s. +
  +   Spin= 2 of  2, K-point=  41 of  118 completed, Time:     0.03s. +
  +   Spin= 2 of  2, K-point=  42 of  118 completed, Time:     0.03s. +
  +   Spin= 2 of  2, K-point=  43 of  118 completed, Time:     0.03s. +
  +   Spin= 2 of  2, K-point=  44 of  118 completed, Time:     0.03s. +
  +   Spin= 2 of  2, K-point=  45 of  118 completed, Time:     0.02s. +
  +   Spin= 2 of  2, K-point=  46 of  118 completed, Time:     0.03s. +
  +   Spin= 2 of  2, K-point=  47 of  118 completed, Time:     0.03s. +
  +   Spin= 2 of  2, K-point=  48 of  118 completed, Time:     0.03s. +
  +   Spin= 2 of  2, K-point=  49 of  118 completed, Time:     0.03s. +
  +   Spin= 2 of  2, K-point=  50 of  118 completed, Time:     0.03s. +
  +   Spin= 2 of  2, K-point=  51 of  118 completed, Time:     0.03s. +
  +   Spin= 2 of  2, K-point=  52 of  118 completed, Time:     0.03s. +
  +   Spin= 2 of  2, K-point=  53 of  118 completed, Time:     0.03s. +
  +   Spin= 2 of  2, K-point=  54 of  118 completed, Time:     0.03s. +
  +   Spin= 2 of  2, K-point=  55 of  118 completed, Time:     0.03s. +
  +   Spin= 2 of  2, K-point=  56 of  118 completed, Time:     0.03s. +
  +   Spin= 2 of  2, K-point=  57 of  118 completed, Time:     0.02s. +
  +   Spin= 2 of  2, K-point=  58 of  118 completed, Time:     0.03s. +
  +   Spin= 2 of  2, K-point=  59 of  118 completed, Time:     0.03s. +
  +   Spin= 2 of  2, K-point=  60 of  118 completed, Time:     0.03s. +
  +   Spin= 2 of  2, K-point=  61 of  118 completed, Time:     0.03s. +
  +   Spin= 2 of  2, K-point=  62 of  118 completed, Time:     0.03s. +
  +   Spin= 2 of  2, K-point=  63 of  118 completed, Time:     0.03s. +
  +   Spin= 2 of  2, K-point=  64 of  118 completed, Time:     0.03s. +
  +   Spin= 2 of  2, K-point=  65 of  118 completed, Time:     0.03s. +
  +   Spin= 2 of  2, K-point=  66 of  118 completed, Time:     0.03s. +
  +   Spin= 2 of  2, K-point=  67 of  118 completed, Time:     0.02s. +
  +   Spin= 2 of  2, K-point=  68 of  118 completed, Time:     0.03s. +
  +   Spin= 2 of  2, K-point=  69 of  118 completed, Time:     0.03s. +
  +   Spin= 2 of  2, K-point=  70 of  118 completed, Time:     0.02s. +
  +   Spin= 2 of  2, K-point=  71 of  118 completed, Time:     0.03s. +
  +   Spin= 2 of  2, K-point=  72 of  118 completed, Time:     0.03s. +
  +   Spin= 2 of  2, K-point=  73 of  118 completed, Time:     0.03s. +
  +   Spin= 2 of  2, K-point=  74 of  118 completed, Time:     0.03s. +
  +   Spin= 2 of  2, K-point=  75 of  118 completed, Time:     0.02s. +
  +   Spin= 2 of  2, K-point=  76 of  118 completed, Time:     0.03s. +
  +   Spin= 2 of  2, K-point=  77 of  118 completed, Time:     0.03s. +
  +   Spin= 2 of  2, K-point=  78 of  118 completed, Time:     0.03s. +
  +   Spin= 2 of  2, K-point=  79 of  118 completed, Time:     0.03s. +
  +   Spin= 2 of  2, K-point=  80 of  118 completed, Time:     0.02s. +
  +   Spin= 2 of  2, K-point=  81 of  118 completed, Time:     0.02s. +
  +   Spin= 2 of  2, K-point=  82 of  118 completed, Time:     0.02s. +
  +   Spin= 2 of  2, K-point=  83 of  118 completed, Time:     0.03s. +
  +   Spin= 2 of  2, K-point=  84 of  118 completed, Time:     0.02s. +
  +   Spin= 2 of  2, K-point=  85 of  118 completed, Time:     0.02s. +
  +   Spin= 2 of  2, K-point=  86 of  118 completed, Time:     0.02s. +
  +   Spin= 2 of  2, K-point=  87 of  118 completed, Time:     0.03s. +
  +   Spin= 2 of  2, K-point=  88 of  118 completed, Time:     0.02s. +
  +   Spin= 2 of  2, K-point=  89 of  118 completed, Time:     0.03s. +
  +   Spin= 2 of  2, K-point=  90 of  118 completed, Time:     0.02s. +
  +   Spin= 2 of  2, K-point=  91 of  118 completed, Time:     0.03s. +
  +   Spin= 2 of  2, K-point=  92 of  118 completed, Time:     0.02s. +
  +   Spin= 2 of  2, K-point=  93 of  118 completed, Time:     0.03s. +
  +   Spin= 2 of  2, K-point=  94 of  118 completed, Time:     0.03s. +
  +   Spin= 2 of  2, K-point=  95 of  118 completed, Time:     0.03s. +
  +   Spin= 2 of  2, K-point=  96 of  118 completed, Time:     0.03s. +
  +   Spin= 2 of  2, K-point=  97 of  118 completed, Time:     0.03s. +
  +   Spin= 2 of  2, K-point=  98 of  118 completed, Time:     0.03s. +
  +   Spin= 2 of  2, K-point=  99 of  118 completed, Time:     0.03s. +
  +   Spin= 2 of  2, K-point= 100 of  118 completed, Time:     0.03s. +
  +   Spin= 2 of  2, K-point= 101 of  118 completed, Time:     0.03s. +
  +   Spin= 2 of  2, K-point= 102 of  118 completed, Time:     0.03s. +
  +   Spin= 2 of  2, K-point= 103 of  118 completed, Time:     0.03s. +
  +   Spin= 2 of  2, K-point= 104 of  118 completed, Time:     0.03s. +
  +   Spin= 2 of  2, K-point= 105 of  118 completed, Time:     0.03s. +
  +   Spin= 2 of  2, K-point= 106 of  118 completed, Time:     0.03s. +
  +   Spin= 2 of  2, K-point= 107 of  118 completed, Time:     0.03s. +
  +   Spin= 2 of  2, K-point= 108 of  118 completed, Time:     0.03s. +
  +   Spin= 2 of  2, K-point= 109 of  118 completed, Time:     0.03s. +
  +   Spin= 2 of  2, K-point= 110 of  118 completed, Time:     0.03s. +
  +   Spin= 2 of  2, K-point= 111 of  118 completed, Time:     0.03s. +
  +   Spin= 2 of  2, K-point= 112 of  118 completed, Time:     0.03s. +
  +   Spin= 2 of  2, K-point= 113 of  118 completed, Time:     0.03s. +
  +   Spin= 2 of  2, K-point= 114 of  118 completed, Time:     0.03s. +
  +   Spin= 2 of  2, K-point= 115 of  118 completed, Time:     0.03s. +
  +   Spin= 2 of  2, K-point= 116 of  118 completed, Time:     0.03s. +
  +   Spin= 2 of  2, K-point= 117 of  118 completed, Time:     0.03s. +
  +   Spin= 2 of  2, K-point= 118 of  118 completed, Time:     0.03s. +
  +   Finished BS calculation on root process (waiting for others).   +
  +                                                                   +
  + ================================================================= +
  +                       Electronic energies                         +
  +                       -------------------                         +
  +                                                                   +
  +   Band number   Energy in eV                                      +
  + ================================================================= +
  +                                                                   +
  + ----------------------------------------------------------------- +
  +  Spin=1 kpt=    1 (  0.000000  0.000000  0.000000) kpt-group=  1  +
  + ----------------------------------------------------------------- +
  +                                                                   +
  +           1       -2.371386                                       +
  +           2        3.696650                                       +
  +           3        3.698801                                       +
  +           4        3.698801                                       +
  +           5        5.077942                                       +
  +           6        5.077943                                       +
  + ----------------------------------------------------------------- +
  +  Spin=1 kpt=    2 (  0.013158  0.013158  0.013158) kpt-group=  1  +
  + ----------------------------------------------------------------- +
  +                                                                   +
  +           1       -2.329504                                       +
  +           2        3.691313                                       +
  +           3        3.691313                                       +
  +           4        3.722649                                       +
  +           5        5.072978                                       +
  +           6        5.072979                                       +
  + ----------------------------------------------------------------- +
  +  Spin=1 kpt=    3 (  0.026316  0.026316  0.026316) kpt-group=  1  +
  + ----------------------------------------------------------------- +
  +                                                                   +
  +           1       -2.204625                                       +
  +           2        3.668226                                       +
  +           3        3.668226                                       +
  +           4        3.800429                                       +
  +           5        5.059697                                       +
  +           6        5.059697                                       +
  + ----------------------------------------------------------------- +
  +  Spin=1 kpt=    4 (  0.039474  0.039474  0.039474) kpt-group=  1  +
  + ----------------------------------------------------------------- +
  +                                                                   +
  +           1       -1.998521                                       +
  +           2        3.638688                                       +
  +           3        3.638688                                       +
  +           4        4.025235                                       +
  +           5        5.061097                                       +
  +           6        5.061098                                       +
  + ----------------------------------------------------------------- +
  +  Spin=1 kpt=    5 (  0.052632  0.052632  0.052632) kpt-group=  1  +
  + ----------------------------------------------------------------- +
  +                                                                   +
  +           1       -1.715697                                       +
  +           2        3.639867                                       +
  +           3        3.639867                                       +
  +           4        4.193699                                       +
  +           5        5.061902                                       +
  +           6        5.061903                                       +
  + ----------------------------------------------------------------- +
  +  Spin=1 kpt=    6 (  0.065789  0.065789  0.065789) kpt-group=  1  +
  + ----------------------------------------------------------------- +
  +                                                                   +
  +           1       -1.362889                                       +
  +           2        3.555822                                       +
  +           3        3.555822                                       +
  +           4        4.410930                                       +
  +           5        5.046321                                       +
  +           6        5.046322                                       +
  + ----------------------------------------------------------------- +
  +  Spin=1 kpt=    7 (  0.078947  0.078947  0.078947) kpt-group=  1  +
  + ----------------------------------------------------------------- +
  +                                                                   +
  +           1       -0.947035                                       +
  +           2        3.454503                                       +
  +           3        3.454503                                       +
  +           4        4.677101                                       +
  +           5        5.000743                                       +
  +           6        5.000743                                       +
  + ----------------------------------------------------------------- +
  +  Spin=1 kpt=    8 (  0.092105  0.092105  0.092105) kpt-group=  1  +
  + ----------------------------------------------------------------- +
  +                                                                   +
  +           1       -0.478046                                       +
  +           2        3.341705                                       +
  +           3        3.341706                                       +
  +           4        4.992700                                       +
  +           5        5.008384                                       +
  +           6        5.008384                                       +
  + ----------------------------------------------------------------- +
  +  Spin=1 kpt=    9 (  0.105263  0.105263  0.105263) kpt-group=  1  +
  + ----------------------------------------------------------------- +
  +                                                                   +
  +           1        0.033673                                       +
  +           2        3.269689                                       +
  +           3        3.269689                                       +
  +           4        5.056399                                       +
  +           5        5.056399                                       +
  +           6        5.368558                                       +
  + ----------------------------------------------------------------- +
  +  Spin=1 kpt=   10 (  0.118421  0.118421  0.118421) kpt-group=  1  +
  + ----------------------------------------------------------------- +
  +                                                                   +
  +           1        0.566322                                       +
  +           2        3.150434                                       +
  +           3        3.150434                                       +
  +           4        5.084992                                       +
  +           5        5.084992                                       +
  +           6        5.813147                                       +
  + ----------------------------------------------------------------- +
  +  Spin=1 kpt=   11 (  0.131579  0.131579  0.131579) kpt-group=  1  +
  + ----------------------------------------------------------------- +
  +                                                                   +
  +           1        1.100501                                       +
  +           2        3.039976                                       +
  +           3        3.039976                                       +
  +           4        5.120615                                       +
  +           5        5.120616                                       +
  +           6        6.285939                                       +
  + ----------------------------------------------------------------- +
  +  Spin=1 kpt=   12 (  0.144737  0.144737  0.144737) kpt-group=  1  +
  + ----------------------------------------------------------------- +
  +                                                                   +
  +           1        1.606063                                       +
  +           2        2.904012                                       +
  +           3        2.904012                                       +
  +           4        5.129365                                       +
  +           5        5.129365                                       +
  +           6        6.809320                                       +
  + ----------------------------------------------------------------- +
  +  Spin=1 kpt=   13 (  0.157895  0.157895  0.157895) kpt-group=  1  +
  + ----------------------------------------------------------------- +
  +                                                                   +
  +           1        2.064315                                       +
  +           2        2.822396                                       +
  +           3        2.822396                                       +
  +           4        5.165807                                       +
  +           5        5.165807                                       +
  +           6        7.436970                                       +
  + ----------------------------------------------------------------- +
  +  Spin=1 kpt=   14 (  0.171053  0.171053  0.171053) kpt-group=  1  +
  + ----------------------------------------------------------------- +
  +                                                                   +
  +           1        2.447674                                       +
  +           2        2.762687                                       +
  +           3        2.762688                                       +
  +           4        5.201213                                       +
  +           5        5.201213                                       +
  +           6        8.159054                                       +
  + ----------------------------------------------------------------- +
  +  Spin=1 kpt=   15 (  0.184211  0.184211  0.184211) kpt-group=  1  +
  + ----------------------------------------------------------------- +
  +                                                                   +
  +           1        2.726533                                       +
  +           2        2.726533                                       +
  +           3        2.738928                                       +
  +           4        5.234110                                       +
  +           5        5.234110                                       +
  +           6        8.981939                                       +
  + ----------------------------------------------------------------- +
  +  Spin=1 kpt=   16 (  0.197368  0.197368  0.197368) kpt-group=  1  +
  + ----------------------------------------------------------------- +
  +                                                                   +
  +           1        2.714230                                       +
  +           2        2.714230                                       +
  +           3        2.931095                                       +
  +           4        5.263521                                       +
  +           5        5.263522                                       +
  +           6        9.905421                                       +
  + ----------------------------------------------------------------- +
  +  Spin=1 kpt=   17 (  0.210526  0.210526  0.210526) kpt-group=  1  +
  + ----------------------------------------------------------------- +
  +                                                                   +
  +           1        2.724757                                       +
  +           2        2.724757                                       +
  +           3        3.027703                                       +
  +           4        5.288917                                       +
  +           5        5.288917                                       +
  +           6       10.922902                                       +
  + ----------------------------------------------------------------- +
  +  Spin=1 kpt=   18 (  0.223684  0.223684  0.223684) kpt-group=  1  +
  + ----------------------------------------------------------------- +
  +                                                                   +
  +           1        2.755824                                       +
  +           2        2.755825                                       +
  +           3        3.040981                                       +
  +           4        5.310139                                       +
  +           5        5.310139                                       +
  +           6       12.021456                                       +
  + ----------------------------------------------------------------- +
  +  Spin=1 kpt=   19 (  0.236842  0.236842  0.236842) kpt-group=  1  +
  + ----------------------------------------------------------------- +
  +                                                                   +
  +           1        2.803910                                       +
  +           2        2.803910                                       +
  +           3        2.989303                                       +
  +           4        5.327319                                       +
  +           5        5.327319                                       +
  +           6       13.175241                                       +
  + ----------------------------------------------------------------- +
  +  Spin=1 kpt=   20 (  0.250000  0.250000  0.250000) kpt-group=  1  +
  + ----------------------------------------------------------------- +
  +                                                                   +
  +           1        2.815726                                       +
  +           2        2.817219                                       +
  +           3        2.817219                                       +
  +           4        5.235096                                       +
  +           5        5.235096                                       +
  +           6       14.273045                                       +
  + ----------------------------------------------------------------- +
  +  Spin=1 kpt=   21 (  0.263158  0.263158  0.263158) kpt-group=  1  +
  + ----------------------------------------------------------------- +
  +                                                                   +
  +           1        2.714493                                       +
  +           2        2.915556                                       +
  +           3        2.915556                                       +
  +           4        5.285764                                       +
  +           5        5.285765                                       +
  +           6       13.802498                                       +
  + ----------------------------------------------------------------- +
  +  Spin=1 kpt=   22 (  0.276316  0.276316  0.276316) kpt-group=  1  +
  + ----------------------------------------------------------------- +
  +                                                                   +
  +           1        2.627809                                       +
  +           2        3.040969                                       +
  +           3        3.040969                                       +
  +           4        5.321659                                       +
  +           5        5.321660                                       +
  +           6       13.427201                                       +
  + ----------------------------------------------------------------- +
  +  Spin=1 kpt=   23 (  0.289474  0.289474  0.289474) kpt-group=  1  +
  + ----------------------------------------------------------------- +
  +                                                                   +
  +           1        2.513227                                       +
  +           2        3.084252                                       +
  +           3        3.084252                                       +
  +           4        5.309997                                       +
  +           5        5.309997                                       +
  +           6       13.087488                                       +
  + ----------------------------------------------------------------- +
  +  Spin=1 kpt=   24 (  0.302632  0.302632  0.302632) kpt-group=  1  +
  + ----------------------------------------------------------------- +
  +                                                                   +
  +           1        2.436106                                       +
  +           2        3.108361                                       +
  +           3        3.108361                                       +
  +           4        5.303548                                       +
  +           5        5.303548                                       +
  +           6       12.824877                                       +
  + ----------------------------------------------------------------- +
  +  Spin=1 kpt=   25 (  0.315789  0.315789  0.315789) kpt-group=  1  +
  + ----------------------------------------------------------------- +
  +                                                                   +
  +           1        2.409674                                       +
  +           2        3.104750                                       +
  +           3        3.104750                                       +
  +           4        5.306369                                       +
  +           5        5.306369                                       +
  +           6       12.642906                                       +
  + ----------------------------------------------------------------- +
  +  Spin=1 kpt=   26 (  0.328947  0.328947  0.328947) kpt-group=  1  +
  + ----------------------------------------------------------------- +
  +                                                                   +
  +           1        2.401962                                       +
  +           2        3.064636                                       +
  +           3        3.064636                                       +
  +           4        5.301667                                       +
  +           5        5.301668                                       +
  +           6       12.543106                                       +
  + ----------------------------------------------------------------- +
  +  Spin=1 kpt=   27 (  0.342105  0.342105  0.342105) kpt-group=  1  +
  + ----------------------------------------------------------------- +
  +                                                                   +
  +           1        2.536576                                       +
  +           2        2.986945                                       +
  +           3        2.986946                                       +
  +           4        5.352880                                       +
  +           5        5.352880                                       +
  +           6       12.524529                                       +
  + ----------------------------------------------------------------- +
  +  Spin=1 kpt=   28 (  0.355263  0.355263  0.355263) kpt-group=  1  +
  + ----------------------------------------------------------------- +
  +                                                                   +
  +           1        2.695019                                       +
  +           2        2.872610                                       +
  +           3        2.872610                                       +
  +           4        5.398353                                       +
  +           5        5.398354                                       +
  +           6       12.583360                                       +
  + ----------------------------------------------------------------- +
  +  Spin=1 kpt=   29 (  0.368421  0.368421  0.368421) kpt-group=  1  +
  + ----------------------------------------------------------------- +
  +                                                                   +
  +           1        2.727740                                       +
  +           2        2.727740                                       +
  +           3        2.921253                                       +
  +           4        5.460645                                       +
  +           5        5.460645                                       +
  +           6       12.713852                                       +
  + ----------------------------------------------------------------- +
  +  Spin=1 kpt=   30 (  0.381579  0.381579  0.381579) kpt-group=  1  +
  + ----------------------------------------------------------------- +
  +                                                                   +
  +           1        2.560936                                       +
  +           2        2.560936                                       +
  +           3        3.210997                                       +
  +           4        5.536818                                       +
  +           5        5.536818                                       +
  +           6       12.908536                                       +
  + ----------------------------------------------------------------- +
  +  Spin=1 kpt=   31 (  0.394737  0.394737  0.394737) kpt-group=  1  +
  + ----------------------------------------------------------------- +
  +                                                                   +
  +           1        2.422556                                       +
  +           2        2.422556                                       +
  +           3        3.560451                                       +
  +           4        5.645999                                       +
  +           5        5.645999                                       +
  +           6       13.180136                                       +
  + ----------------------------------------------------------------- +
  +  Spin=1 kpt=   32 (  0.407895  0.407895  0.407895) kpt-group=  1  +
  + ----------------------------------------------------------------- +
  +                                                                   +
  +           1        2.239808                                       +
  +           2        2.239808                                       +
  +           3        3.950172                                       +
  +           4        5.731669                                       +
  +           5        5.731669                                       +
  +           6       13.474420                                       +
  + ----------------------------------------------------------------- +
  +  Spin=1 kpt=   33 (  0.421053  0.421053  0.421053) kpt-group=  1  +
  + ----------------------------------------------------------------- +
  +                                                                   +
  +           1        2.043058                                       +
  +           2        2.043058                                       +
  +           3        4.395229                                       +
  +           4        5.772493                                       +
  +           5        5.772493                                       +
  +           6       13.804221                                       +
  + ----------------------------------------------------------------- +
  +  Spin=1 kpt=   34 (  0.434211  0.434211  0.434211) kpt-group=  1  +
  + ----------------------------------------------------------------- +
  +                                                                   +
  +           1        1.875629                                       +
  +           2        1.875629                                       +
  +           3        4.805605                                       +
  +           4        5.852702                                       +
  +           5        5.852702                                       +
  +           6       14.158638                                       +
  + ----------------------------------------------------------------- +
  +  Spin=1 kpt=   35 (  0.447368  0.447368  0.447368) kpt-group=  1  +
  + ----------------------------------------------------------------- +
  +                                                                   +
  +           1        1.729543                                       +
  +           2        1.729543                                       +
  +           3        5.199853                                       +
  +           4        5.925511                                       +
  +           5        5.925511                                       +
  +           6       14.521460                                       +
  + ----------------------------------------------------------------- +
  +  Spin=1 kpt=   36 (  0.460526  0.460526  0.460526) kpt-group=  1  +
  + ----------------------------------------------------------------- +
  +                                                                   +
  +           1        1.610361                                       +
  +           2        1.610361                                       +
  +           3        5.550256                                       +
  +           4        5.986805                                       +
  +           5        5.986805                                       +
  +           6       14.869990                                       +
  + ----------------------------------------------------------------- +
  +  Spin=1 kpt=   37 (  0.473684  0.473684  0.473684) kpt-group=  1  +
  + ----------------------------------------------------------------- +
  +                                                                   +
  +           1        1.522296                                       +
  +           2        1.522296                                       +
  +           3        5.828056                                       +
  +           4        6.033179                                       +
  +           5        6.033179                                       +
  +           6       15.171302                                       +
  + ----------------------------------------------------------------- +
  +  Spin=1 kpt=   38 (  0.486842  0.486842  0.486842) kpt-group=  1  +
  + ----------------------------------------------------------------- +
  +                                                                   +
  +           1        1.468296                                       +
  +           2        1.468296                                       +
  +           3        6.007207                                       +
  +           4        6.062069                                       +
  +           5        6.062069                                       +
  +           6       15.381921                                       +
  + ----------------------------------------------------------------- +
  +  Spin=1 kpt=   39 (  0.500000  0.500000  0.500000) kpt-group=  1  +
  + ----------------------------------------------------------------- +
  +                                                                   +
  +           1        1.450104                                       +
  +           2        1.450105                                       +
  +           3        6.069176                                       +
  +           4        6.071879                                       +
  +           5        6.071880                                       +
  +           6       15.459473                                       +
  + ----------------------------------------------------------------- +
  +  Spin=1 kpt=   40 (  0.500000  0.481481  0.481481) kpt-group=  1  +
  + ----------------------------------------------------------------- +
  +                                                                   +
  +           1        1.467946                                       +
  +           2        1.468287                                       +
  +           3        6.013510                                       +
  +           4        6.049717                                       +
  +           5        6.068915                                       +
  +           6       15.270942                                       +
  + ----------------------------------------------------------------- +
  +  Spin=1 kpt=   41 (  0.500000  0.462963  0.462963) kpt-group=  1  +
  + ----------------------------------------------------------------- +
  +                                                                   +
  +           1        1.520805                                       +
  +           2        1.522164                                       +
  +           3        5.852540                                       +
  +           4        5.985268                                       +
  +           5        6.059964                                       +
  +           6       14.777328                                       +
  + ----------------------------------------------------------------- +
  +  Spin=1 kpt=   42 (  0.500000  0.444444  0.444444) kpt-group=  1  +
  + ----------------------------------------------------------------- +
  +                                                                   +
  +           1        1.606667                                       +
  +           2        1.609666                                       +
  +           3        5.602765                                       +
  +           4        5.884321                                       +
  +           5        6.044852                                       +
  +           6       14.108697                                       +
  + ----------------------------------------------------------------- +
  +  Spin=1 kpt=   43 (  0.500000  0.425926  0.425926) kpt-group=  1  +
  + ----------------------------------------------------------------- +
  +                                                                   +
  +           1        1.722098                                       +
  +           2        1.727110                                       +
  +           3        5.287378                                       +
  +           4        5.755582                                       +
  +           5        6.023320                                       +
  +           6       13.365369                                       +
  + ----------------------------------------------------------------- +
  +  Spin=1 kpt=   44 (  0.500000  0.407407  0.407407) kpt-group=  1  +
  + ----------------------------------------------------------------- +
  +                                                                   +
  +           1        1.862145                                       +
  +           2        1.868757                                       +
  +           3        4.932474                                       +
  +           4        5.609628                                       +
  +           5        5.995083                                       +
  +           6       12.606535                                       +
  + ----------------------------------------------------------------- +
  +  Spin=1 kpt=   45 (  0.500000  0.388889  0.388889) kpt-group=  1  +
  + ----------------------------------------------------------------- +
  +                                                                   +
  +           1        2.020213                                       +
  +           2        2.025371                                       +
  +           3        4.539513                                       +
  +           4        5.457972                                       +
  +           5        5.959091                                       +
  +           6       11.865405                                       +
  + ----------------------------------------------------------------- +
  +  Spin=1 kpt=   46 (  0.500000  0.370370  0.370370) kpt-group=  1  +
  + ----------------------------------------------------------------- +
  +                                                                   +
  +           1        2.163074                                       +
  +           2        2.196817                                       +
  +           3        4.156739                                       +
  +           4        5.346436                                       +
  +           5        5.921276                                       +
  +           6       11.145687                                       +
  + ----------------------------------------------------------------- +
  +  Spin=1 kpt=   47 (  0.500000  0.351852  0.351852) kpt-group=  1  +
  + ----------------------------------------------------------------- +
  +                                                                   +
  +           1        2.298162                                       +
  +           2        2.360247                                       +
  +           3        3.834722                                       +
  +           4        5.212476                                       +
  +           5        5.866221                                       +
  +           6       10.490499                                       +
  + ----------------------------------------------------------------- +
  +  Spin=1 kpt=   48 (  0.500000  0.333333  0.333333) kpt-group=  1  +
  + ----------------------------------------------------------------- +
  +                                                                   +
  +           1        2.353527                                       +
  +           2        2.511407                                       +
  +           3        3.594635                                       +
  +           4        5.102845                                       +
  +           5        5.802145                                       +
  +           6        9.866266                                       +
  + ----------------------------------------------------------------- +
  +  Spin=1 kpt=   49 (  0.500000  0.314815  0.314815) kpt-group=  1  +
  + ----------------------------------------------------------------- +
  +                                                                   +
  +           1        2.363562                                       +
  +           2        2.645586                                       +
  +           3        3.474562                                       +
  +           4        5.035472                                       +
  +           5        5.756789                                       +
  +           6        9.340192                                       +
  + ----------------------------------------------------------------- +
  +  Spin=1 kpt=   50 (  0.500000  0.296296  0.296296) kpt-group=  1  +
  + ----------------------------------------------------------------- +
  +                                                                   +
  +           1        2.299548                                       +
  +           2        2.726145                                       +
  +           3        3.440016                                       +
  +           4        4.965430                                       +
  +           5        5.664437                                       +
  +           6        8.899520                                       +
  + ----------------------------------------------------------------- +
  +  Spin=1 kpt=   51 (  0.500000  0.277778  0.277778) kpt-group=  1  +
  + ----------------------------------------------------------------- +
  +                                                                   +
  +           1        2.178060                                       +
  +           2        2.791653                                       +
  +           3        3.433921                                       +
  +           4        4.950128                                       +
  +           5        5.571088                                       +
  +           6        8.542523                                       +
  + ----------------------------------------------------------------- +
  +  Spin=1 kpt=   52 (  0.500000  0.259259  0.259259) kpt-group=  1  +
  + ----------------------------------------------------------------- +
  +                                                                   +
  +           1        2.091130                                       +
  +           2        2.827958                                       +
  +           3        3.431564                                       +
  +           4        4.982235                                       +
  +           5        5.498592                                       +
  +           6        8.278054                                       +
  + ----------------------------------------------------------------- +
  +  Spin=1 kpt=   53 (  0.500000  0.240741  0.240741) kpt-group=  1  +
  + ----------------------------------------------------------------- +
  +                                                                   +
  +           1        2.049002                                       +
  +           2        2.818805                                       +
  +           3        3.342503                                       +
  +           4        5.003106                                       +
  +           5        5.400140                                       +
  +           6        8.090352                                       +
  + ----------------------------------------------------------------- +
  +  Spin=1 kpt=   54 (  0.500000  0.222222  0.222222) kpt-group=  1  +
  + ----------------------------------------------------------------- +
  +                                                                   +
  +           1        2.063709                                       +
  +           2        2.818779                                       +
  +           3        3.222521                                       +
  +           4        5.060045                                       +
  +           5        5.335935                                       +
  +           6        7.986178                                       +
  + ----------------------------------------------------------------- +
  +  Spin=1 kpt=   55 (  0.500000  0.203704  0.203704) kpt-group=  1  +
  + ----------------------------------------------------------------- +
  +                                                                   +
  +           1        2.148060                                       +
  +           2        2.804620                                       +
  +           3        3.050685                                       +
  +           4        5.115124                                       +
  +           5        5.313931                                       +
  +           6        7.931198                                       +
  + ----------------------------------------------------------------- +
  +  Spin=1 kpt=   56 (  0.500000  0.185185  0.185185) kpt-group=  1  +
  + ----------------------------------------------------------------- +
  +                                                                   +
  +           1        2.250765                                       +
  +           2        2.789467                                       +
  +           3        2.873411                                       +
  +           4        5.156435                                       +
  +           5        5.228114                                       +
  +           6        7.911562                                       +
  + ----------------------------------------------------------------- +
  +  Spin=1 kpt=   57 (  0.500000  0.166667  0.166667) kpt-group=  1  +
  + ----------------------------------------------------------------- +
  +                                                                   +
  +           1        2.328967                                       +
  +           2        2.777666                                       +
  +           3        2.777838                                       +
  +           4        5.190555                                       +
  +           5        5.192994                                       +
  +           6        7.910062                                       +
  + ----------------------------------------------------------------- +
  +  Spin=1 kpt=   58 (  0.500000  0.148148  0.148148) kpt-group=  1  +
  + ----------------------------------------------------------------- +
  +                                                                   +
  +           1        2.234555                                       +
  +           2        2.768885                                       +
  +           3        2.914487                                       +
  +           4        5.161212                                       +
  +           5        5.221564                                       +
  +           6        7.906852                                       +
  + ----------------------------------------------------------------- +
  +  Spin=1 kpt=   59 (  0.500000  0.129630  0.129630) kpt-group=  1  +
  + ----------------------------------------------------------------- +
  +                                                                   +
  +           1        2.052630                                       +
  +           2        2.764871                                       +
  +           3        3.231520                                       +
  +           4        5.150995                                       +
  +           5        5.247240                                       +
  +           6        7.896382                                       +
[...]
  +           4        6.764566                                       +
  +           5        7.581194                                       +
  +           6        7.888989                                       +
  + ----------------------------------------------------------------- +
  +  Spin=2 kpt=   94 (  0.360000  0.120000 -0.120000) kpt-group=  1  +
  + ----------------------------------------------------------------- +
  +                                                                   +
  +           1        2.285933                                       +
  +           2        4.951767                                       +
  +           3        5.066345                                       +
  +           4        6.811404                                       +
  +           5        7.818747                                       +
  +           6        8.116270                                       +
  + ----------------------------------------------------------------- +
  +  Spin=2 kpt=   95 (  0.390000  0.130000 -0.130000) kpt-group=  1  +
  + ----------------------------------------------------------------- +
  +                                                                   +
  +           1        2.612394                                       +
  +           2        4.937774                                       +
  +           3        5.026914                                       +
  +           4        6.806392                                       +
  +           5        8.030358                                       +
  +           6        8.459440                                       +
  + ----------------------------------------------------------------- +
  +  Spin=2 kpt=   96 (  0.420000  0.140000 -0.140000) kpt-group=  1  +
  + ----------------------------------------------------------------- +
  +                                                                   +
  +           1        2.840634                                       +
  +           2        4.975698                                       +
  +           3        5.009398                                       +
  +           4        6.821596                                       +
  +           5        8.221227                                       +
  +           6        8.950104                                       +
  + ----------------------------------------------------------------- +
  +  Spin=2 kpt=   97 (  0.450000  0.150000 -0.150000) kpt-group=  1  +
  + ----------------------------------------------------------------- +
  +                                                                   +
  +           1        2.990340                                       +
  +           2        4.941393                                       +
  +           3        4.986725                                       +
  +           4        6.775025                                       +
  +           5        8.327720                                       +
  +           6        9.495003                                       +
  + ----------------------------------------------------------------- +
  +  Spin=2 kpt=   98 (  0.480000  0.160000 -0.160000) kpt-group=  1  +
  + ----------------------------------------------------------------- +
  +                                                                   +
  +           1        3.098979                                       +
  +           2        4.873181                                       +
  +           3        5.042863                                       +
  +           4        6.726378                                       +
  +           5        8.395828                                       +
  +           6       10.007970                                       +
  + ----------------------------------------------------------------- +
  +  Spin=2 kpt=   99 (  0.510000  0.170000 -0.170000) kpt-group=  1  +
  + ----------------------------------------------------------------- +
  +                                                                   +
  +           1        3.163472                                       +
  +           2        4.770364                                       +
  +           3        5.120618                                       +
  +           4        6.683434                                       +
  +           5        8.399421                                       +
  +           6       10.259057                                       +
  + ----------------------------------------------------------------- +
  +  Spin=2 kpt=  100 (  0.540000  0.180000 -0.180000) kpt-group=  1  +
  + ----------------------------------------------------------------- +
  +                                                                   +
  +           1        3.199714                                       +
  +           2        4.668023                                       +
  +           3        5.221601                                       +
  +           4        6.648682                                       +
  +           5        8.342871                                       +
  +           6       10.177110                                       +
  + ----------------------------------------------------------------- +
  +  Spin=2 kpt=  101 (  0.570000  0.190000 -0.190000) kpt-group=  1  +
  + ----------------------------------------------------------------- +
  +                                                                   +
  +           1        3.179849                                       +
  +           2        4.543935                                       +
  +           3        5.320188                                       +
  +           4        6.611345                                       +
  +           5        8.197201                                       +
  +           6        9.819143                                       +
  + ----------------------------------------------------------------- +
  +  Spin=2 kpt=  102 (  0.600000  0.200000 -0.200000) kpt-group=  1  +
  + ----------------------------------------------------------------- +
  +                                                                   +
  +           1        3.107460                                       +
  +           2        4.488220                                       +
  +           3        5.448147                                       +
  +           4        6.562572                                       +
  +           5        8.010406                                       +
  +           6        9.413526                                       +
  + ----------------------------------------------------------------- +
  +  Spin=2 kpt=  103 (  0.630000  0.210000 -0.210000) kpt-group=  1  +
  + ----------------------------------------------------------------- +
  +                                                                   +
  +           1        2.979004                                       +
  +           2        4.537461                                       +
  +           3        5.644141                                       +
  +           4        6.495588                                       +
  +           5        7.793583                                       +
  +           6        9.048139                                       +
  + ----------------------------------------------------------------- +
  +  Spin=2 kpt=  104 (  0.660000  0.220000 -0.220000) kpt-group=  1  +
  + ----------------------------------------------------------------- +
  +                                                                   +
  +           1        2.774277                                       +
  +           2        4.633045                                       +
  +           3        5.783832                                       +
  +           4        6.387524                                       +
  +           5        7.534911                                       +
  +           6        8.731327                                       +
  + ----------------------------------------------------------------- +
  +  Spin=2 kpt=  105 (  0.690000  0.230000 -0.230000) kpt-group=  1  +
  + ----------------------------------------------------------------- +
  +                                                                   +
  +           1        2.543567                                       +
  +           2        4.778601                                       +
  +           3        5.929891                                       +
  +           4        6.250511                                       +
  +           5        7.252999                                       +
  +           6        8.491889                                       +
  + ----------------------------------------------------------------- +
  +  Spin=2 kpt=  106 (  0.720000  0.240000 -0.240000) kpt-group=  1  +
  + ----------------------------------------------------------------- +
  +                                                                   +
  +           1        2.303957                                       +
  +           2        4.961776                                       +
  +           3        6.017258                                       +
  +           4        6.119891                                       +
  +           5        7.020379                                       +
  +           6        8.322953                                       +
  + ----------------------------------------------------------------- +
  +  Spin=2 kpt=  107 (  0.750000  0.250000 -0.250000) kpt-group=  1  +
  + ----------------------------------------------------------------- +
  +                                                                   +
  +           1        2.074049                                       +
  +           2        5.121098                                       +
  +           3        6.017127                                       +
  +           4        6.018377                                       +
  +           5        6.877441                                       +
  +           6        8.201520                                       +
  + ----------------------------------------------------------------- +
  +  Spin=2 kpt=  108 (  0.727273  0.227273 -0.227273) kpt-group=  1  +
  + ----------------------------------------------------------------- +
  +                                                                   +
  +           1        2.096300                                       +
  +           2        5.083176                                       +
  +           3        5.936762                                       +
  +           4        6.076794                                       +
  +           5        6.960415                                       +
  +           6        8.206709                                       +
  + ----------------------------------------------------------------- +
  +  Spin=2 kpt=  109 (  0.704545  0.204545 -0.204545) kpt-group=  1  +
  + ----------------------------------------------------------------- +
  +                                                                   +
  +           1        2.155737                                       +
  +           2        4.988237                                       +
  +           3        5.731959                                       +
  +           4        6.198146                                       +
  +           5        7.137488                                       +
  +           6        8.217021                                       +
  + ----------------------------------------------------------------- +
  +  Spin=2 kpt=  110 (  0.681818  0.181818 -0.181818) kpt-group=  1  +
  + ----------------------------------------------------------------- +
  +                                                                   +
  +           1        2.242553                                       +
  +           2        4.910918                                       +
  +           3        5.475633                                       +
  +           4        6.383152                                       +
  +           5        7.359078                                       +
  +           6        8.234032                                       +
  + ----------------------------------------------------------------- +
  +  Spin=2 kpt=  111 (  0.659091  0.159091 -0.159091) kpt-group=  1  +
  + ----------------------------------------------------------------- +
  +                                                                   +
  +           1        2.342406                                       +
  +           2        4.894395                                       +
  +           3        5.252941                                       +
  +           4        6.578094                                       +
  +           5        7.615991                                       +
  +           6        8.251654                                       +
  + ----------------------------------------------------------------- +
  +  Spin=2 kpt=  112 (  0.636364  0.136364 -0.136364) kpt-group=  1  +
  + ----------------------------------------------------------------- +
  +                                                                   +
  +           1        2.431037                                       +
  +           2        4.967329                                       +
  +           3        5.043945                                       +
  +           4        6.758064                                       +
  +           5        7.828931                                       +
  +           6        8.262786                                       +
  + ----------------------------------------------------------------- +
  +  Spin=2 kpt=  113 (  0.613636  0.113636 -0.113636) kpt-group=  1  +
  + ----------------------------------------------------------------- +
  +                                                                   +
  +           1        2.488027                                       +
  +           2        4.870634                                       +
  +           3        5.156485                                       +
  +           4        6.904368                                       +
  +           5        8.035294                                       +
  +           6        8.279569                                       +
  + ----------------------------------------------------------------- +
  +  Spin=2 kpt=  114 (  0.590909  0.090909 -0.090909) kpt-group=  1  +
  + ----------------------------------------------------------------- +
  +                                                                   +
  +           1        2.512981                                       +
  +           2        4.706885                                       +
  +           3        5.414292                                       +
  +           4        7.035178                                       +
  +           5        8.189572                                       +
  +           6        8.209342                                       +
  + ----------------------------------------------------------------- +
  +  Spin=2 kpt=  115 (  0.568182  0.068182 -0.068182) kpt-group=  1  +
  + ----------------------------------------------------------------- +
  +                                                                   +
  +           1        2.515399                                       +
  +           2        4.578197                                       +
  +           3        5.767043                                       +
  +           4        7.138713                                       +
  +           5        8.096488                                       +
  +           6        8.319029                                       +
  + ----------------------------------------------------------------- +
  +  Spin=2 kpt=  116 (  0.545455  0.045455 -0.045455) kpt-group=  1  +
  + ----------------------------------------------------------------- +
  +                                                                   +
  +           1        2.504105                                       +
  +           2        4.514047                                       +
  +           3        6.164381                                       +
  +           4        7.238476                                       +
  +           5        7.928004                                       +
  +           6        8.427181                                       +
  + ----------------------------------------------------------------- +
  +  Spin=2 kpt=  117 (  0.522727  0.022727 -0.022727) kpt-group=  1  +
  + ----------------------------------------------------------------- +
  +                                                                   +
  +           1        2.485686                                       +
  +           2        4.455409                                       +
  +           3        6.528292                                       +
  +           4        7.278438                                       +
  +           5        7.699223                                       +
  +           6        8.483951                                       +
  + ----------------------------------------------------------------- +
  +  Spin=2 kpt=  118 (  0.500000  0.000000  0.000000) kpt-group=  1  +
  + ----------------------------------------------------------------- +
  +                                                                   +
  +           1        2.481111                                       +
  +           2        4.435729                                       +
  +           3        6.712273                                       +
  +           4        7.290291                                       +
  +           5        7.567825                                       +
  +           6        8.503026                                       +
  =====================================================================

Writing model to Fe.orbitals

 ***************** Symmetrised Forces *****************
 *                                                    *
 *            Cartesian components (eV/A)             *
 * -------------------------------------------------- *
 *                   x            y            z      *
 *                                                    *
 * Fe        1      0.00000      0.00000      0.00000 *
 *                                                    *
 ******************************************************

 Pseudo atomic calculation performed for Fe 3d6 4s2

 Converged in 29 iterations to a total energy of -847.7109 eV

Charge spilling parameter for spin component 1 = 0.20%
Charge spilling parameter for spin component 2 = 0.54%

     Atomic Populations (Mulliken)
     -----------------------------
Species   Ion     s      p      d      f     Total  Charge (e)  Spin (hbar/2)
===========================================================================
  Fe       1     1.05   0.28   6.67   0.00   8.00     0.00        2.17
===========================================================================

            Bond              Population        Spin       Length (A)
======================================================================
======================================================================


Writing analysis data to Fe.castep_bin

Writing model to Fe.check
 
 A BibTeX formatted list of references used in this run has been written to 
 Fe.bib
 
Initialisation time =      6.90 s
Calculation time    =     11.97 s
Finalisation time   =      0.02 s
Total time          =     18.89 s
