 +-------------------------------------------------+
 |                                                 |
 |      CCC   AA    SSS  TTTTT  EEEEE  PPPP        |
 |     C     A  A  S       T    E      P   P       |
 |     C     AAAA   SS     T    EEE    PPPP        |
 |     C     A  A     S    T    E      P           |
 |      CCC  A  A  SSS     T    EEEEE  P           |
 |                                                 |
 +-------------------------------------------------+
 |                                                 |
 | Welcome to Academic Release CASTEP version 16.1 |          
 | Ab Initio Total Energy Program                  |
 |                                                 |
 | Authors:                                        |
 | M. Segall, M. Probert, C. Pickard, P. Hasnip,   |
 | S. Clark, K. Refson, J. R. Yates, M. Payne      |
 |                                                 |
 | Contributors:                                   |
 | P. Lindan, P. Haynes, J. White, V. Milman,      |
 | N. Govind, M. Gibson, P. Tulip, V. Cocula,      |
 | B. Montanari, D. Quigley, M. Glover,            |
 | L. Bernasconi, A. Perlov, M. Plummer,           |
 | E. McNellis, J. Meyer, J. Gale, D. Jochym       |
 | J. Aarons, B. Walker, R. Gillen, D. Jones       |
 | T. Green, I. J. Bush, C. J. Armstrong,          |
 | E. J. Higgins, E. L. Brown, M. S. McFly         |
 |                                                 |
 | Copyright (c) 2000 - 2015                       |
 |                                                 |
 |     Distributed under the terms of an           |
 |     Agreement between the United Kingdom        |
 |     Car-Parrinello (UKCP) Consortium,           |
 |     Daresbury Laboratory and Accelrys, Inc.     |
 |                                                 |
 | Please cite                                     |
 |                                                 |
 |     "First principles methods using CASTEP"     |
 |                                                 |
 |         Zeitschrift fuer Kristallographie       |
 |           220(5-6) pp. 567-570 (2005)           |
 |                                                 |
 | S. J. Clark, M. D. Segall, C. J. Pickard,       |
 | P. J. Hasnip, M. J. Probert, K. Refson,         |
 | M. C. Payne                                     |
 |                                                 |
 |       in all publications arising from          |
 |              your use of CASTEP                 |
 |                                                 |
 +-------------------------------------------------+


 Compiled for darwin_x86_64_gfortran4.8 on Fri, 11 Dec 2015 15:41:06 +0000
 from code version Version unavailable
 Compiler: GNU Fortran 4.8.1; Optimisation: intermediate
 MATHLIBS: default (LAPACK version 3.2.1)
 FFT Lib : default
 Fundamental constants values: CODATA 2010

 Run started: Fri, 12 Feb 2016 14:12:05 +0000

 Atomic calculation performed for Si: 1s2 2s2 2p6 3s2 3p2

 Converged in 54 iterations to an ae energy of -7886.857 eV

   ============================================================                
   | Pseudopotential Report - Date of generation 12-02-2016   |                
   ------------------------------------------------------------                
   | Element: Si Ionic charge:  4.00 Level of theory: PBE     |                
   | Atomic Solver: Koelling-Harmon                           |                
   |                                                          |                
   |               Reference Electronic Structure             |                
   |         Orbital         Occupation         Energy        |                
   |            3s              2.000           -0.397        |                
   |            3p              2.000           -0.150        |                
   |                                                          |                
   |                 Pseudopotential Definition               |                
   |        Beta     l      e      Rc     scheme   norm       |                
   |          1      0   -0.397   1.797     qc      0         |                
   |          2      0    0.250   1.797     qc      0         |                
   |          3      1   -0.150   1.797     qc      0         |                
   |          4      1    0.250   1.797     qc      0         |                
   |          5      2    0.000   1.797     qc      0         |                
   |          6      2    0.250   1.797     qc      0         |                
   |         loc     3    0.000   1.797     pn      0         |                
   |                                                          |                
   | Augmentation charge Rinner = 1.255                       |                
   | Partial core correction Rc = 1.255                       |                
   ------------------------------------------------------------                
   | "3|1.8|5|6|7|30:31:32"                                   |                
   ------------------------------------------------------------                
   |      Author: Chris J. Pickard, Cambridge University      |                
   ============================================================                

 Pseudo atomic calculation performed for Si 3s2 3p2

 Converged in 15 iterations to a total energy of -164.6257 eV

 Calculation not parallelised.

 ************************************ Title ************************************
 

 ***************************** General Parameters ******************************
  
 output verbosity                               : normal  (1)
 write checkpoint data to                       : Si8.check
 type of calculation                            : single point energy
 stress calculation                             : off
 density difference calculation                 : off
 electron localisation func (ELF) calculation   : off
 Hirshfeld analysis                             : off
 unlimited duration calculation
 timing information                             : on
 memory usage estimate                          : on
 write final potential to formatted file        : off
 write final density to formatted file          : off
 write BibTeX reference list                    : on
 write OTFG pseudopotential files               : on
 checkpoint writing                             : both castep_bin and check files
  
 output         length unit                     : A
 output           mass unit                     : amu
 output           time unit                     : ps
 output         charge unit                     : e
 output           spin unit                     : hbar/2
 output         energy unit                     : eV
 output          force unit                     : eV/A
 output       velocity unit                     : A/ps
 output       pressure unit                     : GPa
 output     inv_length unit                     : 1/A
 output      frequency unit                     : cm-1
 output force constant unit                     : eV/A**2
 output         volume unit                     : A**3
 output   IR intensity unit                     : (D/A)**2/amu
 output         dipole unit                     : D
 output         efield unit                     : eV/A/e
 output        entropy unit                     : J/mol/K
  
 wavefunctions paging                           : none
 random number generator seed                   : randomised (141205608)
 data distribution                              : optimal for this architecture
 optimization strategy                          : balance speed and memory

 *********************** Exchange-Correlation Parameters ***********************
  
 using functional                               : Perdew Burke Ernzerhof
 relativistic treatment                         : Koelling-Harmon
 DFT+D: Semi-empirical dispersion correction    : off

 ************************* Pseudopotential Parameters **************************
  
 pseudopotential representation                 : reciprocal space
 <beta|phi> representation                      : reciprocal space
 spin-orbit coupling                            : off

 **************************** Basis Set Parameters *****************************
  
 plane wave basis set cut-off                   :   100.0000   eV
 size of standard grid                          :     1.7500
 size of   fine   gmax                          :     8.9655   1/A
 finite basis set correction                    : none

 **************************** Electronic Parameters ****************************
  
 number of  electrons                           :  32.00    
 net charge of system                           :  0.000    
 treating system as non-spin-polarized
 number of bands                                :         36

 ********************* Electronic Minimization Parameters **********************
  
 Method: Treating system as metallic with density mixing treatment of electrons,
         and number of  SD  steps               :          1
         and number of  CG  steps               :          4
  
 total energy / atom convergence tol.           : 0.1000E-04   eV
 eigen-energy convergence tolerance             : 0.1000E-05   eV
 max force / atom convergence tol.              : ignored
 convergence tolerance window                   :          3   cycles
 max. number of SCF cycles                      :         30
 number of fixed-spin iterations                :         10
 smearing scheme                                : Gaussian
 smearing width                                 : 0.2000       eV
 Fermi energy convergence tolerance             : 0.2721E-13   eV
 periodic dipole correction                     : NONE

 ************************** Density Mixing Parameters **************************
  
 density-mixing scheme                          : Broyden
 max. length of mixing history                  :         20
 charge density mixing amplitude                : 0.8000    
 cut-off energy for mixing                      :  100.0       eV

 *********************** Population Analysis Parameters ************************
  
 Population analysis with cutoff                :  3.000       A

 *******************************************************************************
  

                           -------------------------------
                                      Unit Cell
                           -------------------------------
        Real Lattice(A)                      Reciprocal Lattice(1/A)
   5.4300000   0.0000000   0.0000000        1.1571244   0.0000000   0.0000000
   0.0000000   5.4300000   0.0000000        0.0000000   1.1571244   0.0000000
   0.0000000   0.0000000   5.4300000        0.0000000   0.0000000   1.1571244

                       Lattice parameters(A)       Cell Angles
                    a =    5.430000          alpha =   90.000000
                    b =    5.430000          beta  =   90.000000
                    c =    5.430000          gamma =   90.000000

                       Current cell volume =  160.103007       A**3

                           -------------------------------
                                     Cell Contents
                           -------------------------------
                         Total number of ions in cell =    8
                      Total number of species in cell =    1
                        Max number of any one species =    8

            xxxxxxxxxxxxxxxxxxxxxxxxxxxxxxxxxxxxxxxxxxxxxxxxxxxxxxxxxxxx
            x  Element    Atom        Fractional coordinates of atoms  x
            x            Number           u          v          w      x
            x----------------------------------------------------------x
            x  Si           1         0.000000   0.000000   0.000000   x 
            x  Si           2         0.250000   0.250000   0.250000   x 
            x  Si           3         0.500000   0.500000   0.000000   x 
            x  Si           4         0.750000   0.750000   0.250000   x 
            x  Si           5         0.500000   0.000000   0.500000   x 
            x  Si           6         0.750000   0.250000   0.750000   x 
            x  Si           7         0.000000   0.500000   0.500000   x 
            x  Si           8         0.250000   0.750000   0.750000   x 
            xxxxxxxxxxxxxxxxxxxxxxxxxxxxxxxxxxxxxxxxxxxxxxxxxxxxxxxxxxxx


                         No user defined ionic velocities

                           -------------------------------
                                   Details of Species
                           -------------------------------

                               Mass of species in AMU
                                    Si   28.0855000

                          Electric Quadrupole Moment (Barn)
                                    Si    1.0000000 No Isotope Defined

                          Files used for pseudopotentials:
                                    Si 3|1.8|5|6|7|30:31:32

                           -------------------------------
                              k-Points For BZ Sampling
                           -------------------------------
                       MP grid size for SCF calculation is  2  2  2
                            with an offset of   0.000  0.000  0.000
                       Number of kpoints used =             4

                           -------------------------------
                               Symmetry and Constraints
                           -------------------------------

                      Cell is a supercell containing 4 primitive cells
                      Maximum deviation from symmetry =  0.00000         ANG

         There are no symmetry operations specified or generated for this cell
                      Number of ionic constraints     =           3
                      Point group of crystal =     1: C1, 1, 1
                      Space group of crystal =   227: Fd-3m, F 4d 2 3 -1d


                         Centre of mass is constrained
             Set iprint > 1 for details of linear ionic constraints

                         Number of cell constraints= 0
                         Cell constraints are:  1 2 3 4 5 6

                         External pressure/stress (GPa)
                          0.00000   0.00000   0.00000
                                    0.00000   0.00000
                                              0.00000
  
+---------------- MEMORY AND SCRATCH DISK ESTIMATES PER PROCESS --------------+
|                                                     Memory          Disk    |
| Baseline code, static data and system overhead        0.0 MB         0.0 MB |
| BLAS internal memory storage                          0.0 MB         0.0 MB |
| Model and support data                               18.2 MB         5.7 MB |
| Electronic energy minimisation requirements           3.3 MB         0.0 MB |
| Force calculation requirements                        0.5 MB         0.0 MB |
|                                               ----------------------------- |
| Approx. total storage required per process           21.6 MB         5.7 MB |
|                                                                             |
| Requirements will fluctuate during execution and may exceed these estimates |
+-----------------------------------------------------------------------------+
------------------------------------------------------------------------ <-- SCF
SCF loop      Energy           Fermi           Energy gain       Timer   <-- SCF
                               energy          per atom          (sec)   <-- SCF
------------------------------------------------------------------------ <-- SCF
Initial  -9.97243540E+001  0.00000000E+000                        10.05  <-- SCF
      1  -1.26675207E+003  6.79490219E+000   1.45878465E+002      10.63  <-- SCF
      2  -1.38007046E+003  5.02753799E+000   1.41647988E+001      11.05  <-- SCF
      3  -1.38268466E+003  5.03627862E+000   3.26774094E-001      11.46  <-- SCF
      4  -1.38172184E+003  5.15749317E+000  -1.20352662E-001      11.85  <-- SCF
      5  -1.38167272E+003  5.26372070E+000  -6.13885114E-003      12.32  <-- SCF
      6  -1.38169799E+003  5.31826278E+000   3.15802998E-003      12.70  <-- SCF
      7  -1.38169814E+003  5.32794554E+000   1.94785350E-005      13.07  <-- SCF
      8  -1.38169786E+003  5.32405488E+000  -3.53994848E-005      13.46  <-- SCF
      9  -1.38169786E+003  5.32378256E+000  -4.23113751E-008      13.69  <-- SCF
     10  -1.38169786E+003  5.32369586E+000  -1.75058717E-008      13.92  <-- SCF
     11  -1.38169786E+003  5.32368525E+000  -1.32811098E-009      14.14  <-- SCF
------------------------------------------------------------------------ <-- SCF
 
Final energy, E             =  -1381.697860747     eV
Final free energy (E-TS)    =  -1381.697860747     eV
(energies not corrected for finite basis set)
 
NB est. 0K energy (E-0.5TS)      =  -1381.697860747     eV
 

Writing analysis data to Si8.castep_bin

Writing model to Si8.check

 *********************** Forces ***********************
 *                                                    *
 *            Cartesian components (eV/A)             *
 * -------------------------------------------------- *
 *                   x            y            z      *
 *                                                    *
 * Si        1      0.00000     -0.00000     -0.00000 *
 * Si        2      0.00000      0.00000      0.00000 *
 * Si        3     -0.00000     -0.00000      0.00000 *
 * Si        4      0.00000     -0.00000      0.00000 *
 * Si        5      0.00000      0.00000     -0.00000 *
 * Si        6     -0.00000      0.00000     -0.00000 *
 * Si        7     -0.00000     -0.00000      0.00000 *
 * Si        8     -0.00000     -0.00000     -0.00000 *
 *                                                    *
 ******************************************************

 Pseudo atomic calculation performed for Si 3s2 3p2

 Converged in 15 iterations to a total energy of -164.6257 eV

Charge spilling parameter for spin component 1 = 0.81%

     Atomic Populations (Mulliken)
     -----------------------------
Species   Ion     s      p      d      f     Total  Charge (e)
==============================================================
  Si       1     1.34   2.66   0.00   0.00   4.00     0.00
  Si       2     1.34   2.66   0.00   0.00   4.00    -0.00
  Si       3     1.34   2.66   0.00   0.00   4.00     0.00
  Si       4     1.34   2.66   0.00   0.00   4.00    -0.00
  Si       5     1.34   2.66   0.00   0.00   4.00    -0.00
  Si       6     1.34   2.66   0.00   0.00   4.00    -0.00
  Si       7     1.34   2.66   0.00   0.00   4.00     0.00
  Si       8     1.34   2.66   0.00   0.00   4.00    -0.00
==============================================================

            Bond              Population      Length (A)
============================================================
         Si 7 -- Si 8              0.75        2.35126
         Si 5 -- Si 6              0.76        2.35126
         Si 3 -- Si 4              0.76        2.35126
         Si 2 -- Si 7              0.76        2.35126
         Si 2 -- Si 5              0.75        2.35126
         Si 2 -- Si 3              0.75        2.35126
         Si 1 -- Si 2              0.75        2.35126
         Si 6 -- Si 7              0.75        2.35126
         Si 5 -- Si 8              0.75        2.35126
         Si 4 -- Si 7              0.75        2.35126
         Si 4 -- Si 5              0.76        2.35126
         Si 3 -- Si 8              0.75        2.35126
         Si 3 -- Si 6              0.76        2.35126
         Si 1 -- Si 8              0.76        2.35126
         Si 1 -- Si 6              0.75        2.35126
         Si 1 -- Si 4              0.75        2.35126
============================================================


Writing analysis data to Si8.castep_bin

Writing model to Si8.check
 
 A BibTeX formatted list of references used in this run has been written to 
 Si8.bib
 
Initialisation time =      9.21 s
Calculation time    =      5.35 s
Finalisation time   =      0.01 s
Total time          =     14.58 s
