                                                                                     
                             WELCOME TO ABACUS                                       
                                                                                     
               'Atomic-orbital Based Ab-initio Computation at UStc'                  
                                                                                     
                     Website: http://abacus.ustc.edu.cn/                             
                                                                                     
    Version: Parallel, in development
    Processor Number is 8
    Start Time is Wed Jul  6 09:57:14 2022
                                                                                     
 ------------------------------------------------------------------------------------

 READING GENERAL INFORMATION
                           global_out_dir = OUT.ABACUS/
                           global_in_card = INPUT
                               pseudo_dir = 
                              orbital_dir = 
                              pseudo_type = auto
                                    DRANK = 1
                                    DSIZE = 8
                                   DCOLOR = 1
                                    GRANK = 1
                                    GSIZE = 1




 >>>>>>>>>>>>>>>>>>>>>>>>>>>>>>>>>>>>>>>>>>>>>>>>>>>>>>>>>>>>>>>>>>>>>>
 |                                                                    |
 | Reading atom information in unitcell:                              |
 | From the input file and the structure file we know the number of   |
 | different elments in this unitcell, then we list the detail        |
 | information for each element, especially the zeta and polar atomic |
 | orbital number for each element. The total atom number is counted. |
 | We calculate the nearest atom distance for each atom and show the  |
 | Cartesian and Direct coordinates for each atom. We list the file   |
 | address for atomic orbitals. The volume and the lattice vectors    |
 | in real and reciprocal space is also shown.                        |
 |                                                                    |
 <<<<<<<<<<<<<<<<<<<<<<<<<<<<<<<<<<<<<<<<<<<<<<<<<<<<<<<<<<<<<<<<<<<<<<




 READING UNITCELL INFORMATION
                                    ntype = 1
                 atom label for species 1 = Si
                  lattice constant (Bohr) = 15
              lattice constant (Angstrom) = 7.93766

 READING ATOM TYPE 1
                               atom label = Si
                      L=0, number of zeta = 2
                      L=1, number of zeta = 2
                      L=2, number of zeta = 1
             number of atom for this type = 2
                      start magnetization = FALSE
                      start magnetization = FALSE

                        TOTAL ATOM NUMBER = 2

 CARTESIAN COORDINATES ( UNIT = 15 Bohr ).
         atom                   x                   y                   z                 mag                  vx                  vy                  vz
     tauc_Si1                   0                   0                   0                   0                   0                   0                   0
     tauc_Si2      0.280000000001                   0                   0                   0                   0                   0                   0


 READING ORBITAL FILE NAMES FOR LCAO
 orbital file: ./Si_lda_8.0au_50Ry_2s2p1d

                          Volume (Bohr^3) = 3375
                             Volume (A^3) = 500.122803248

 Lattice vectors: (Cartesian coordinate: in unit of a_0)
                   +1                  +0                  +0
                   +0                  +1                  +0
                   +0                  +0                  +1
 Reciprocal vectors: (Cartesian coordinate: in unit of 2 pi/a_0)
                   +1                  +0                  +0
                   +0                  +1                  +0
                   +0                  +0                  +1




 >>>>>>>>>>>>>>>>>>>>>>>>>>>>>>>>>>>>>>>>>>>>>>>>>>>>>>>>>>>>>>>>>>>>>>
 |                                                                    |
 | Reading pseudopotentials files:                                    |
 | The pseudopotential file is in UPF format. The 'NC' indicates that |
 | the type of pseudopotential is 'norm conserving'. Functional of    |
 | exchange and correlation is decided by 4 given parameters in UPF   |
 | file.  We also read in the 'core correction' if there exists.      |
 | Also we can read the valence electrons number and the maximal      |
 | angular momentum used in this pseudopotential. We also read in the |
 | trail wave function, trail atomic density and local-pseudopotential|
 | on logrithmic grid. The non-local pseudopotential projector is also|
 | read in if there is any.                                           |
 |                                                                    |
 <<<<<<<<<<<<<<<<<<<<<<<<<<<<<<<<<<<<<<<<<<<<<<<<<<<<<<<<<<<<<<<<<<<<<<




                PAO radial cut off (Bohr) = 15

 Read in pseudopotential file is Si.pz-vbc.UPF
                     pseudopotential type = NC
          exchange-correlation functional = PZ
                 nonlocal core correction = 0
                        valence electrons = 4
                                     lmax = 1
                           number of zeta = 2
                     number of projectors = 2
                           L of projector = 0
                           L of projector = 1
     initial pseudo atomic orbital number = 8
                                   NLOCAL = 26




 >>>>>>>>>>>>>>>>>>>>>>>>>>>>>>>>>>>>>>>>>>>>>>>>>>>>>>>>>>>>>>>>>>>>>>
 |                                                                    |
 | Setup plane waves of charge/potential:                             |
 | Use the energy cutoff and the lattice vectors to generate the      |
 | dimensions of FFT grid. The number of FFT grid on each processor   |
 | is 'nrxx'. The number of plane wave basis in reciprocal space is   |
 | different for charege/potential and wave functions. We also set    |
 | the 'sticks' for the parallel of FFT. The number of plane waves    |
 | is 'npw' in each processor.                                        |
 <<<<<<<<<<<<<<<<<<<<<<<<<<<<<<<<<<<<<<<<<<<<<<<<<<<<<<<<<<<<<<<<<<<<<<





 SETUP THE PLANE WAVE BASIS
 energy cutoff for charge/potential (unit:Ry) = 200
          [fft grid for charge/potential] = 72, 72, 72
                      [fft grid division] = 2, 2, 2
      [big fft grid for charge/potential] = 36, 36, 36
                                     nbxx = 6480
                                     nrxx = 51840

 SETUP PLANE WAVES FOR CHARGE/POTENTIAL
                    number of plane waves = 161235
                         number of sticks = 3577

 PARALLEL PW FOR CHARGE/POTENTIAL
     PROC   COLUMNS(POT)             PW
        1            447          20157
        2            448          20156
        3            447          20153
        4            447          20153
        5            447          20153
        6            447          20153
        7            447          20155
        8            447          20155
 --------------- sum -------------------
        8           3577         161235
                            number of |g| = 928
                                  max |g| = 1139
                                  min |g| = 1

 SETUP THE ELECTRONS NUMBER
            electron number of element Si = 4
      total electron number of element Si = 8
                           occupied bands = 4
                                   NLOCAL = 26
                                   NBANDS = 8
                                   NBANDS = 8
 DONE : SETUP UNITCELL Time : 0.0465910434723 (SEC)





 >>>>>>>>>>>>>>>>>>>>>>>>>>>>>>>>>>>>>>>>>>>>>>>>>>>>>>>>>>>>>>>>>>>>>>
 |                                                                    |
 | Setup K-points                                                     |
 | We setup the k-points according to input parameters.               |
 | The reduced k-points are set according to symmetry operations.     |
 | We treat the spin as another set of k-points.                      |
 |                                                                    |
 <<<<<<<<<<<<<<<<<<<<<<<<<<<<<<<<<<<<<<<<<<<<<<<<<<<<<<<<<<<<<<<<<<<<<<





 SETUP K-POINTS
                                    nspin = 1
                   Input type of k points = Monkhorst-Pack(Gamma)
is_mp : 1
                                   nkstot = 1
                               nkstot_ibz = 1
      IBZ             DirectX             DirectY             DirectZ              Weight    ibz2bz
        1                   0                   0                   0                   1         0
                               nkstot now = 1

  KPOINTS            DIRECT_X            DIRECT_Y            DIRECT_Z              WEIGHT
        1                   0                   0                   0                   1

           k-point number in this process = 1
       minimum distributed K point number = 1

  KPOINTS         CARTESIAN_X         CARTESIAN_Y         CARTESIAN_Z              WEIGHT
        1                   0                   0                   0                   2

  KPOINTS            DIRECT_X            DIRECT_Y            DIRECT_Z              WEIGHT
        1                   0                   0                   0                   2
 DONE : INIT K-POINTS Time : 0.0586960315704 (SEC)





 >>>>>>>>>>>>>>>>>>>>>>>>>>>>>>>>>>>>>>>>>>>>>>>>>>>>>>>>>>>>>>>>>>>>>>
 |                                                                    |
 | Setup plane waves of wave functions:                               |
 | Use the energy cutoff and the lattice vectors to generate the      |
 | dimensions of FFT grid. The number of FFT grid on each processor   |
 | is 'nrxx'. The number of plane wave basis in reciprocal space is   |
 | different for charege/potential and wave functions. We also set    |
 | the 'sticks' for the parallel of FFT. The number of plane wave of  |
 | each k-point is 'npwk[ik]' in each processor                       |
 <<<<<<<<<<<<<<<<<<<<<<<<<<<<<<<<<<<<<<<<<<<<<<<<<<<<<<<<<<<<<<<<<<<<<<





 SETUP PLANE WAVES FOR WAVE FUNCTIONS
     energy cutoff for wavefunc (unit:Ry) = 50
            [fft grid for wave functions] = 72, 72, 72
                    number of plane waves = 20005
                         number of sticks = 885

 PARALLEL PW FOR WAVE FUNCTIONS
     PROC   COLUMNS(POT)             PW
        1            110           2500
        2            110           2500
        3            110           2500
        4            111           2501
        5            111           2501
        6            111           2501
        7            111           2501
        8            111           2501
 --------------- sum -------------------
        8            885          20005
 DONE : INIT PLANEWAVE Time : 0.0618319511414 (SEC)

 DONE : INIT CHARGE Time : 0.065190076828 (SEC)

                                 init_chg = atomic
 DONE : INIT POTENTIAL Time : 0.0843229 (SEC)





 >>>>>>>>>>>>>>>>>>>>>>>>>>>>>>>>>>>>>>>>>>>>>>>>>>>>>>>>>>>>>>>>>>>>>>
 |                                                                    |
 | Setup numerical orbitals:                                          |
 | This part setup: numerical atomic orbitals, non-local projectors   |
 | and neutral potential (1D). The atomic orbitals information        |
 | including the radius, angular momentum and zeta number.            |
 | The neutral potential is the sum of local part of pseudopotential  |
 | and potential given by atomic charge, they will cancel out beyond  |
 | a certain radius cutoff, because the Z/r character.                |
 |                                                                    |
 <<<<<<<<<<<<<<<<<<<<<<<<<<<<<<<<<<<<<<<<<<<<<<<<<<<<<<<<<<<<<<<<<<<<<<





 SETUP ONE DIMENSIONAL ORBITALS/POTENTIAL
                        delta k  (1/Bohr) = 0.01
                        delta r    (Bohr) = 0.01
                        dr_uniform (Bohr) = 0.001
                        rmax       (Bohr) = 30
                                    kmesh = 711
      ORBITAL  L  N      nr      dr    RCUT  CHECK_UNIT    NEW_UNIT
            1  0  0     801    0.01       8           1           1
            2  0  1     801    0.01       8           1           1
            3  1  0     801    0.01       8           1           1
            4  1  1     801    0.01       8           1           1
            5  2  0     801    0.01       8           1           1
 SET NONLOCAL PSEUDOPOTENTIAL PROJECTORS
 max number of nonlocal projetors among all species is 2

 SETUP THE TWO-CENTER INTEGRATION TABLES

 SETUP THE DIVISION OF H/S MATRIX
 divide the H&S matrix using 2D block algorithms.
                                     nb2d = 1
                  trace_loc_row dimension = 26
                  trace_loc_col dimension = 26
                                     nloc = 91

 -------------------------------------------
 RELAX CELL : 1
 RELAX IONS : 1 (in total: 1)
 -------------------------------------------




 >>>>>>>>>>>>>>>>>>>>>>>>>>>>>>>>>>>>>>>>>>>>>>>>>>>>>>>>>>>>>>>>>>>>>>
 |                                                                    |
 | Search adjacent atoms:                                             |
 | Set the adjacent atoms for each atom and set the periodic boundary |
 | condition for the atoms on real space FFT grid. For k-dependent    |
 | algorithm, we also need to set the sparse H and S matrix element   |
 | for each atom.                                                     |
 |                                                                    |
 <<<<<<<<<<<<<<<<<<<<<<<<<<<<<<<<<<<<<<<<<<<<<<<<<<<<<<<<<<<<<<<<<<<<<<





 SETUP SEARCHING RADIUS FOR PROGRAM TO SEARCH ADJACENT ATOMS
                  longest orb rcut (Bohr) = 8
   longest nonlocal projector rcut (Bohr) = 5.01
              searching radius is (Bohr)) = 16
         searching radius unit is (Bohr)) = 15

 SETUP EXTENDED REAL SPACE GRID FOR GRID INTEGRATION
                        [real space grid] = 72, 72, 72
               [big cell numbers in grid] = 36, 36, 36
           [meshcell numbers in big cell] = 2, 2, 2
                      [extended fft grid] = 20, 20, 20
              [dimension of extened grid] = 77, 77, 77
                            UnitCellTotal = 27
              Atom number in sub-FFT-grid = 2
    Local orbitals number in sub-FFT-grid = 26
                                 lgd_last = 0
                                  lgd_now = 26
 allocate DM , the dimension is 26
        enter setAlltoallvParameter, nblk = 1
checkpoint 2
                                     pnum = 0
                                     prow = 0
                                     pcol = 0
                             nRow_in_proc = 13
                             nCol_in_proc = 7
                                     pnum = 1
                                     prow = 0
                                     pcol = 1
                             nRow_in_proc = 13
                             nCol_in_proc = 7
                                     pnum = 2
                                     prow = 0
                                     pcol = 2
                             nRow_in_proc = 13
                             nCol_in_proc = 6
                                     pnum = 3
                                     prow = 0
                                     pcol = 3
                             nRow_in_proc = 13
                             nCol_in_proc = 6
                                     pnum = 4
                                     prow = 1
                                     pcol = 0
                             nRow_in_proc = 13
                             nCol_in_proc = 7
                                     pnum = 5
                                     prow = 1
                                     pcol = 1
                             nRow_in_proc = 13
                             nCol_in_proc = 7
                                     pnum = 6
                                     prow = 1
                                     pcol = 2
                             nRow_in_proc = 13
                             nCol_in_proc = 6
                                     pnum = 7
                                     prow = 1
                                     pcol = 3
                             nRow_in_proc = 13
                             nCol_in_proc = 6
receiver_size is 676 ; receiver_size of each process is:
91 91 78 78 91 91 78 78 
sender_size is 728 ; sender_size of each process is:
91 91 91 91 91 91 91 91 
                         gamma_only_local = 1

 LCAO ALGORITHM --------------- ION=   1  ELEC=   1--------------------------------

vlocal exchange index is built
                          buffer size(M): = 0
                    buffer index size(M): = 0
 vlocal data are put in sender_buffer, size(M): = 0
 vlocal data are exchanged, received size(M): = 0

K-S equation was solved by genelpa2

eigenvalues were copied to ekb
              cal_dk_gamma_from_2D, NSPIN = 1
 number of non-zero elements in sender_buffer = 728
                              sender_size = 728
                       last sender_buffer = 0.00538
 number of non-zero elements in receiver_buffer = 676
                            receiver_size = 676
                     last receiver_buffer = 2.14e-17

 Density error is 0.173631620215

       Energy                       Rydberg                            eV
   E_KohnSham                -15.2349775814                -207.282504009
     E_Harris                -15.2691897413                -207.747984325
      E_Fermi               -0.366211469615                -4.98256265972

 LCAO ALGORITHM --------------- ION=   1  ELEC=   2--------------------------------
 vlocal data are put in sender_buffer, size(M): = 0
 vlocal data are exchanged, received size(M): = 0

K-S equation was solved by genelpa2

eigenvalues were copied to ekb
              cal_dk_gamma_from_2D, NSPIN = 1
 number of non-zero elements in sender_buffer = 728
                              sender_size = 728
                       last sender_buffer = 0.00286750324364
 number of non-zero elements in receiver_buffer = 676
                            receiver_size = 676
                     last receiver_buffer = -1.4166674057e-16

 Density error is 0.152598220988

       Energy                       Rydberg                            eV
   E_KohnSham                -15.2333633951                -207.260541878
     E_Harris                -15.2548674162                -207.553119095
      E_Fermi                -0.30488620161                -4.14818958347

 LCAO ALGORITHM --------------- ION=   1  ELEC=   3--------------------------------
 vlocal data are put in sender_buffer, size(M): = 0
 vlocal data are exchanged, received size(M): = 0

K-S equation was solved by genelpa2

eigenvalues were copied to ekb
              cal_dk_gamma_from_2D, NSPIN = 1
 number of non-zero elements in sender_buffer = 728
                              sender_size = 728
                       last sender_buffer = 0.0025395605032
 number of non-zero elements in receiver_buffer = 676
                            receiver_size = 676
                     last receiver_buffer = 3.31091207672e-18

 Density error is 0.127573527143

       Energy                       Rydberg                            eV
   E_KohnSham                -15.2464464986                -207.438546633
     E_Harris                -15.2576794643                -207.591378971
      E_Fermi               -0.307455425678                -4.18314567023

 LCAO ALGORITHM --------------- ION=   1  ELEC=   4--------------------------------
 vlocal data are put in sender_buffer, size(M): = 0
 vlocal data are exchanged, received size(M): = 0

K-S equation was solved by genelpa2

eigenvalues were copied to ekb
              cal_dk_gamma_from_2D, NSPIN = 1
 number of non-zero elements in sender_buffer = 728
                              sender_size = 728
                       last sender_buffer = 0.003218552894
 number of non-zero elements in receiver_buffer = 676
                            receiver_size = 676
                     last receiver_buffer = 5.86659279812e-18

 Density error is 0.027468938904

       Energy                       Rydberg                            eV
   E_KohnSham                -15.2488757047                -207.471597677
     E_Harris                -15.2493275509                -207.477745361
      E_Fermi               -0.315859371679                -4.29748722153

 LCAO ALGORITHM --------------- ION=   1  ELEC=   5--------------------------------
 vlocal data are put in sender_buffer, size(M): = 0
 vlocal data are exchanged, received size(M): = 0

K-S equation was solved by genelpa2

eigenvalues were copied to ekb
              cal_dk_gamma_from_2D, NSPIN = 1
 number of non-zero elements in sender_buffer = 728
                              sender_size = 728
                       last sender_buffer = 0.00316089791112
 number of non-zero elements in receiver_buffer = 676
                            receiver_size = 676
                     last receiver_buffer = 1.37672525156e-16

 Density error is 0.0174351560716

       Energy                       Rydberg                            eV
   E_KohnSham                -15.2490750272                -207.474309599
     E_Harris                -15.2492442451                -207.476611927
      E_Fermi               -0.314263790776                -4.27577822964

 LCAO ALGORITHM --------------- ION=   1  ELEC=   6--------------------------------
 vlocal data are put in sender_buffer, size(M): = 0
 vlocal data are exchanged, received size(M): = 0

K-S equation was solved by genelpa2

eigenvalues were copied to ekb
              cal_dk_gamma_from_2D, NSPIN = 1
 number of non-zero elements in sender_buffer = 728
                              sender_size = 728
                       last sender_buffer = 0.00316879092434
 number of non-zero elements in receiver_buffer = 676
                            receiver_size = 676
                     last receiver_buffer = -3.08143555096e-17

 Density error is 0.003943683772

       Energy                       Rydberg                            eV
   E_KohnSham                 -15.249165494                -207.475540464
     E_Harris                -15.2491715172                -207.475622413
      E_Fermi               -0.314377371284                -4.27732357172

 LCAO ALGORITHM --------------- ION=   1  ELEC=   7--------------------------------
 vlocal data are put in sender_buffer, size(M): = 0
 vlocal data are exchanged, received size(M): = 0

K-S equation was solved by genelpa2

eigenvalues were copied to ekb
              cal_dk_gamma_from_2D, NSPIN = 1
 number of non-zero elements in sender_buffer = 728
                              sender_size = 728
                       last sender_buffer = 0.00316873308827
 number of non-zero elements in receiver_buffer = 676
                            receiver_size = 676
                     last receiver_buffer = 2.8588222545e-16

 Density error is 0.000666924009394

       Energy                       Rydberg                            eV
   E_KohnSham                -15.2491675787                -207.475568827
     E_Harris                -15.2491677108                -207.475570625
      E_Fermi                -0.31436806503                -4.27719695364

 LCAO ALGORITHM --------------- ION=   1  ELEC=   8--------------------------------
 vlocal data are put in sender_buffer, size(M): = 0
 vlocal data are exchanged, received size(M): = 0

K-S equation was solved by genelpa2

eigenvalues were copied to ekb
              cal_dk_gamma_from_2D, NSPIN = 1
 number of non-zero elements in sender_buffer = 728
                              sender_size = 728
                       last sender_buffer = 0.0031681781079
 number of non-zero elements in receiver_buffer = 676
                            receiver_size = 676
                     last receiver_buffer = -2.28980011907e-16

 Density error is 0.000238907514465

       Energy                       Rydberg                            eV
   E_KohnSham                 -15.249167601                -207.475569131
     E_Harris                -15.2491676098                 -207.47556925
      E_Fermi               -0.314359205864                -4.27707641851

 LCAO ALGORITHM --------------- ION=   1  ELEC=   9--------------------------------
 vlocal data are put in sender_buffer, size(M): = 0
 vlocal data are exchanged, received size(M): = 0

K-S equation was solved by genelpa2

eigenvalues were copied to ekb
              cal_dk_gamma_from_2D, NSPIN = 1
 number of non-zero elements in sender_buffer = 728
                              sender_size = 728
                       last sender_buffer = 0.003168121761
 number of non-zero elements in receiver_buffer = 676
                            receiver_size = 676
                     last receiver_buffer = -1.39071603073e-16

 Density error is 0.000167705335224

       Energy                       Rydberg                            eV
   E_KohnSham                -15.2491675892                -207.475568969
     E_Harris                -15.2491676019                -207.475569143
      E_Fermi                -0.31435886951                -4.27707184217

 LCAO ALGORITHM --------------- ION=   1  ELEC=  10--------------------------------
 vlocal data are put in sender_buffer, size(M): = 0
 vlocal data are exchanged, received size(M): = 0

K-S equation was solved by genelpa2

eigenvalues were copied to ekb
              cal_dk_gamma_from_2D, NSPIN = 1
 number of non-zero elements in sender_buffer = 728
                              sender_size = 728
                       last sender_buffer = 0.00316806768063
 number of non-zero elements in receiver_buffer = 676
                            receiver_size = 676
                     last receiver_buffer = 2.6285738669e-16

 Density error is 2.21734804815e-06

       Energy                       Rydberg                            eV
   E_KohnSham                -15.2491675941                -207.475569037
     E_Harris                -15.2491675941                -207.475569037
      E_Fermi               -0.314358457486                 -4.2770662363

 LCAO ALGORITHM --------------- ION=   1  ELEC=  11--------------------------------
 vlocal data are put in sender_buffer, size(M): = 0
 vlocal data are exchanged, received size(M): = 0

K-S equation was solved by genelpa2

eigenvalues were copied to ekb
              cal_dk_gamma_from_2D, NSPIN = 1
 number of non-zero elements in sender_buffer = 728
                              sender_size = 728
                       last sender_buffer = 0.00316806742448
 number of non-zero elements in receiver_buffer = 676
                            receiver_size = 676
                     last receiver_buffer = -3.33120477534e-16

 Density error is 3.16566647634e-06

       Energy                       Rydberg                            eV
   E_KohnSham                -15.2491675942                -207.475569038
     E_Harris                -15.2491675942                -207.475569038
      E_Fermi               -0.314358448813                 -4.2770661183

 LCAO ALGORITHM --------------- ION=   1  ELEC=  12--------------------------------
 vlocal data are put in sender_buffer, size(M): = 0
 vlocal data are exchanged, received size(M): = 0

K-S equation was solved by genelpa2

eigenvalues were copied to ekb
              cal_dk_gamma_from_2D, NSPIN = 1
 number of non-zero elements in sender_buffer = 728
                              sender_size = 728
                       last sender_buffer = 0.00316806704259
 number of non-zero elements in receiver_buffer = 676
                            receiver_size = 676
                     last receiver_buffer = 7.21547064352e-16

 Density error is 4.0699914789e-09

       Energy                       Rydberg                            eV
   E_KohnSham                -15.2491675941                -207.475569037
     E_Harris                -15.2491675941                -207.475569037
      E_Fermi               -0.314358451618                -4.27706615647

 LCAO ALGORITHM --------------- ION=   1  ELEC=  13--------------------------------
 vlocal data are put in sender_buffer, size(M): = 0
 vlocal data are exchanged, received size(M): = 0

K-S equation was solved by genelpa2

eigenvalues were copied to ekb
              cal_dk_gamma_from_2D, NSPIN = 1
 number of non-zero elements in sender_buffer = 728
                              sender_size = 728
                       last sender_buffer = 0.00316806704035
 number of non-zero elements in receiver_buffer = 676
                            receiver_size = 676
                     last receiver_buffer = -9.05778249714e-16

 Density error is 6.08377967942e-10

       Energy                       Rydberg                            eV
   E_KohnSham                -15.2491675942                -207.475569037
     E_Harris                -15.2491675942                -207.475569037
       E_band                -4.12616985726                -56.1394209746
   E_one_elec                -15.2516065405                -207.508752605
    E_Hartree                +8.27507309683                +112.588145483
         E_xc                -4.16249357576                -56.6336305187
      E_Ewald                -4.09484335015                -55.7132019794
      E_demet              -0.0152972246022               -0.208129418176
      E_descf                            +0                            +0
     E_efield                            +0                            +0
        E_exx                            +0                            +0
      E_Fermi               -0.314358451557                -4.27706615563

 charge density convergence is achieved
 final etot is -207.475569037 eV

 STATE ENERGY(eV) AND OCCUPATIONS    NSPIN == 1
 1/1 kpoint (Cartesian) = 0 0 0 (2500 pws)
       1       -11.6698        2.00000
       2       -7.76032        2.00000
       3       -4.33679        1.46528
       4       -4.30993        1.26736
       5       -4.30993        1.26736
       6       -1.39449        0.00000
       7       -1.39449        0.00000
       8        2.94540        0.00000

 EFERMI = -4.277066155626732 eV
 OUT.ABACUS/ final etot is -207.4755690374039 eV
 correction force for each atom along direction 1 is 2.27483e-05
 correction force for each atom along direction 2 is 8.89579e-16
 correction force for each atom along direction 3 is 5.17934e-13

 ><><><><><><><><><><><><><><><><><><><><><><

    TOTAL-FORCE (eV/Angstrom)

 ><><><><><><><><><><><><><><><><><><><><><><

     atom              x              y              z
      Si1    -0.37492179              0              0
      Si2    +0.37492179              0              0


 ><><><><><><><><><><><><><><><><><><><><><><

 TOTAL-STRESS (KBAR)

 ><><><><><><><><><><><><><><><><><><><><><><

       -1.024677      -0.000000      +0.000000
       -0.000000      +0.596941      -0.000000
       +0.000000      -0.000000      +0.596941
 TOTAL-PRESSURE: +0.056402 KBAR

 Ion relaxation is not converged yet (threshold is +0.001000)

 CARTESIAN COORDINATES ( UNIT = +15.000000 Bohr ).
         atom                   x                   y                   z                 mag                  vx                  vy                  vz
     tauc_Si1     +0.000000000000     +0.000000000000     +0.000000000000     +0.000000000000     +0.000000000000     +0.000000000000     +0.000000000000
     tauc_Si2     +0.313333333334     +0.000000000000     +0.000000000000     +0.000000000000     +0.000000000000     +0.000000000000     +0.000000000000

 Setup the structure factor in plane wave basis.

 -------------------------------------------
 RELAX CELL : 1
 RELAX IONS : 2 (in total: 2)
 -------------------------------------------




 >>>>>>>>>>>>>>>>>>>>>>>>>>>>>>>>>>>>>>>>>>>>>>>>>>>>>>>>>>>>>>>>>>>>>>
 |                                                                    |
 | Search adjacent atoms:                                             |
 | Set the adjacent atoms for each atom and set the periodic boundary |
 | condition for the atoms on real space FFT grid. For k-dependent    |
 | algorithm, we also need to set the sparse H and S matrix element   |
 | for each atom.                                                     |
 |                                                                    |
 <<<<<<<<<<<<<<<<<<<<<<<<<<<<<<<<<<<<<<<<<<<<<<<<<<<<<<<<<<<<<<<<<<<<<<





 SETUP SEARCHING RADIUS FOR PROGRAM TO SEARCH ADJACENT ATOMS
                  longest orb rcut (Bohr) = +8.000
   longest nonlocal projector rcut (Bohr) = +5.008
              searching radius is (Bohr)) = +16.010
         searching radius unit is (Bohr)) = +15.000

 SETUP EXTENDED REAL SPACE GRID FOR GRID INTEGRATION
                        [real space grid] = +72, +72, +72
               [big cell numbers in grid] = +36, +36, +36
           [meshcell numbers in big cell] = +2, +2, +2
                      [extended fft grid] = +20, +20, +20
              [dimension of extened grid] = +77, +77, +77
                            UnitCellTotal = +27
              Atom number in sub-FFT-grid = +2
    Local orbitals number in sub-FFT-grid = +26
                                 lgd_last = +26
                                  lgd_now = +26
 allocate DM , the dimension is +26
        enter setAlltoallvParameter, nblk = +1
checkpoint 2
                                     pnum = +0
                                     prow = +0
                                     pcol = +0
                             nRow_in_proc = +13
                             nCol_in_proc = +7
                                     pnum = +1
                                     prow = +0
                                     pcol = +1
                             nRow_in_proc = +13
                             nCol_in_proc = +7
                                     pnum = +2
                                     prow = +0
                                     pcol = +2
                             nRow_in_proc = +13
                             nCol_in_proc = +6
                                     pnum = +3
                                     prow = +0
                                     pcol = +3
                             nRow_in_proc = +13
                             nCol_in_proc = +6
                                     pnum = +4
                                     prow = +1
                                     pcol = +0
                             nRow_in_proc = +13
                             nCol_in_proc = +7
                                     pnum = +5
                                     prow = +1
                                     pcol = +1
                             nRow_in_proc = +13
                             nCol_in_proc = +7
                                     pnum = +6
                                     prow = +1
                                     pcol = +2
                             nRow_in_proc = +13
                             nCol_in_proc = +6
                                     pnum = +7
                                     prow = +1
                                     pcol = +3
                             nRow_in_proc = +13
                             nCol_in_proc = +6
receiver_size is +676 ; receiver_size of each process is:
+91 +91 +78 +78 +91 +91 +78 +78 
sender_size is +728 ; sender_size of each process is:
+91 +91 +91 +91 +91 +91 +91 +91 
                         gamma_only_local = +1

 LCAO ALGORITHM --------------- ION=  +2  ELEC=  +1--------------------------------

vlocal exchange index is built
                          buffer size(M): = 0
                    buffer index size(M): = 0
 vlocal data are put in sender_buffer, size(M): = +0
 vlocal data are exchanged, received size(M): = +0

K-S equation was solved by genelpa2

eigenvalues were copied to ekb
              cal_dk_gamma_from_2D, NSPIN = +1
 number of non-zero elements in sender_buffer = +728
                              sender_size = +728
                       last sender_buffer = +0.003
 number of non-zero elements in receiver_buffer = +676
                            receiver_size = +676
                     last receiver_buffer = +0.000

 Density error is +0.078609195518

       Energy                       Rydberg                            eV
   E_KohnSham              -15.235109966253             -207.284305197625
     E_Harris              -15.242559273696             -207.385658225009
      E_Fermi               -0.281096593542               -3.824515360565

 LCAO ALGORITHM --------------- ION=   2  ELEC=   2--------------------------------
 vlocal data are put in sender_buffer, size(M): = 0
 vlocal data are exchanged, received size(M): = 0

K-S equation was solved by genelpa2

eigenvalues were copied to ekb
              cal_dk_gamma_from_2D, NSPIN = 1
 number of non-zero elements in sender_buffer = 728
                              sender_size = 728
                       last sender_buffer = 0.003977592379
 number of non-zero elements in receiver_buffer = 676
                            receiver_size = 676
                     last receiver_buffer = -0.000000000000

 Density error is 0.045725966246

       Energy                       Rydberg                            eV
   E_KohnSham              -15.233903529762             -207.267890787071
     E_Harris              -15.240597622750             -207.358968594652
      E_Fermi               -0.296598738955               -4.035432869403

 LCAO ALGORITHM --------------- ION=   2  ELEC=   3--------------------------------
 vlocal data are put in sender_buffer, size(M): = 0
 vlocal data are exchanged, received size(M): = 0

K-S equation was solved by genelpa2

eigenvalues were copied to ekb
              cal_dk_gamma_from_2D, NSPIN = 1
 number of non-zero elements in sender_buffer = 728
                              sender_size = 728
                       last sender_buffer = 0.003189043022
 number of non-zero elements in receiver_buffer = 676
                            receiver_size = 676
                     last receiver_buffer = 0.000000000000

 Density error is 0.056924093521

       Energy                       Rydberg                            eV
   E_KohnSham              -15.235206223546             -207.285614845283
     E_Harris              -15.241703128683             -207.374009774514
      E_Fermi               -0.292360317699               -3.977766189792

 LCAO ALGORITHM --------------- ION=   2  ELEC=   4--------------------------------
 vlocal data are put in sender_buffer, size(M): = 0
 vlocal data are exchanged, received size(M): = 0

K-S equation was solved by genelpa2

eigenvalues were copied to ekb
              cal_dk_gamma_from_2D, NSPIN = 1
 number of non-zero elements in sender_buffer = 728
                              sender_size = 728
                       last sender_buffer = 0.003322278189
 number of non-zero elements in receiver_buffer = 676
                            receiver_size = 676
                     last receiver_buffer = 0.000000000000

 Density error is 0.017124297481

       Energy                       Rydberg                            eV
   E_KohnSham              -15.238367018768             -207.328619670524
     E_Harris              -15.238875369438             -207.335536136206
      E_Fermi               -0.291050921844               -3.959950945235

 LCAO ALGORITHM --------------- ION=   2  ELEC=   5--------------------------------
 vlocal data are put in sender_buffer, size(M): = 0
 vlocal data are exchanged, received size(M): = 0

K-S equation was solved by genelpa2

eigenvalues were copied to ekb
              cal_dk_gamma_from_2D, NSPIN = 1
 number of non-zero elements in sender_buffer = 728
                              sender_size = 728
                       last sender_buffer = 0.003453924553
 number of non-zero elements in receiver_buffer = 676
                            receiver_size = 676
                     last receiver_buffer = -0.000000000000

 Density error is 0.001361302799

       Energy                       Rydberg                            eV
   E_KohnSham              -15.238573777378             -207.331432765727
     E_Harris              -15.238575718522             -207.331459176338
      E_Fermi               -0.291917772520               -3.971745053734

 LCAO ALGORITHM --------------- ION=   2  ELEC=   6--------------------------------
 vlocal data are put in sender_buffer, size(M): = 0
 vlocal data are exchanged, received size(M): = 0

K-S equation was solved by genelpa2

eigenvalues were copied to ekb
              cal_dk_gamma_from_2D, NSPIN = 1
 number of non-zero elements in sender_buffer = 728
                              sender_size = 728
                       last sender_buffer = 0.003458667669
 number of non-zero elements in receiver_buffer = 676
                            receiver_size = 676
                     last receiver_buffer = 0.000000000000

 Density error is 0.000269871968

       Energy                       Rydberg                            eV
   E_KohnSham              -15.238574372610             -207.331440864277
     E_Harris              -15.238574514384             -207.331442793204
      E_Fermi               -0.292241526151               -3.976149947865

 LCAO ALGORITHM --------------- ION=   2  ELEC=   7--------------------------------
 vlocal data are put in sender_buffer, size(M): = 0
 vlocal data are exchanged, received size(M): = 0

K-S equation was solved by genelpa2

eigenvalues were copied to ekb
              cal_dk_gamma_from_2D, NSPIN = 1
 number of non-zero elements in sender_buffer = 728
                              sender_size = 728
                       last sender_buffer = 0.003454333772
 number of non-zero elements in receiver_buffer = 676
                            receiver_size = 676
                     last receiver_buffer = -0.000000000000

 Density error is 0.000093950802

       Energy                       Rydberg                            eV
   E_KohnSham              -15.238574441935             -207.331441807486
     E_Harris              -15.238574452536             -207.331441951714
      E_Fermi               -0.292231266087               -3.976010352531

 LCAO ALGORITHM --------------- ION=   2  ELEC=   8--------------------------------
 vlocal data are put in sender_buffer, size(M): = 0
 vlocal data are exchanged, received size(M): = 0

K-S equation was solved by genelpa2

eigenvalues were copied to ekb
              cal_dk_gamma_from_2D, NSPIN = 1
 number of non-zero elements in sender_buffer = 728
                              sender_size = 728
                       last sender_buffer = 0.003455457668
 number of non-zero elements in receiver_buffer = 676
                            receiver_size = 676
                     last receiver_buffer = 0.000000000000

 Density error is 0.000004670836

       Energy                       Rydberg                            eV
   E_KohnSham              -15.238574445093             -207.331441850449
     E_Harris              -15.238574445115             -207.331441850746
      E_Fermi               -0.292233929254               -3.976046586784

 LCAO ALGORITHM --------------- ION=   2  ELEC=   9--------------------------------
 vlocal data are put in sender_buffer, size(M): = 0
 vlocal data are exchanged, received size(M): = 0

K-S equation was solved by genelpa2

eigenvalues were copied to ekb
              cal_dk_gamma_from_2D, NSPIN = 1
 number of non-zero elements in sender_buffer = 728
                              sender_size = 728
                       last sender_buffer = 0.003455493340
 number of non-zero elements in receiver_buffer = 676
                            receiver_size = 676
                     last receiver_buffer = -0.000000000000

 Density error is 0.000000804675

       Energy                       Rydberg                            eV
   E_KohnSham              -15.238574445256             -207.331441852674
     E_Harris              -15.238574445257             -207.331441852682
      E_Fermi               -0.292234080847               -3.976048649314

 LCAO ALGORITHM --------------- ION=   2  ELEC=  10--------------------------------
 vlocal data are put in sender_buffer, size(M): = 0
 vlocal data are exchanged, received size(M): = 0

K-S equation was solved by genelpa2

eigenvalues were copied to ekb
              cal_dk_gamma_from_2D, NSPIN = 1
 number of non-zero elements in sender_buffer = 728
                              sender_size = 728
                       last sender_buffer = 0.003455495504
 number of non-zero elements in receiver_buffer = 676
                            receiver_size = 676
                     last receiver_buffer = 0.000000000000

 Density error is 0.000000092694

       Energy                       Rydberg                            eV
   E_KohnSham              -15.238574445201             -207.331441851916
     E_Harris              -15.238574445201             -207.331441851916
      E_Fermi               -0.292234048399               -3.976048207828

 LCAO ALGORITHM --------------- ION=   2  ELEC=  11--------------------------------
 vlocal data are put in sender_buffer, size(M): = 0
 vlocal data are exchanged, received size(M): = 0

K-S equation was solved by genelpa2

eigenvalues were copied to ekb
              cal_dk_gamma_from_2D, NSPIN = 1
 number of non-zero elements in sender_buffer = 728
                              sender_size = 728
                       last sender_buffer = 0.003455494991
 number of non-zero elements in receiver_buffer = 676
                            receiver_size = 676
                     last receiver_buffer = -0.000000000000

 Density error is 0.000000013375

       Energy                       Rydberg                            eV
   E_KohnSham              -15.238574445235             -207.331441852379
     E_Harris              -15.238574445235             -207.331441852379
      E_Fermi               -0.292234047211               -3.976048191677

 LCAO ALGORITHM --------------- ION=   2  ELEC=  12--------------------------------
 vlocal data are put in sender_buffer, size(M): = 0
 vlocal data are exchanged, received size(M): = 0

K-S equation was solved by genelpa2

eigenvalues were copied to ekb
              cal_dk_gamma_from_2D, NSPIN = 1
 number of non-zero elements in sender_buffer = 728
                              sender_size = 728
                       last sender_buffer = 0.003455494956
 number of non-zero elements in receiver_buffer = 676
                            receiver_size = 676
                     last receiver_buffer = 0.000000000000

 Density error is 0.000000003397

       Energy                       Rydberg                            eV
   E_KohnSham              -15.238574445193             -207.331441851807
     E_Harris              -15.238574445193             -207.331441851810
      E_Fermi               -0.292234046560               -3.976048182819

 LCAO ALGORITHM --------------- ION=   2  ELEC=  13--------------------------------
 vlocal data are put in sender_buffer, size(M): = 0
 vlocal data are exchanged, received size(M): = 0

K-S equation was solved by genelpa2

eigenvalues were copied to ekb
              cal_dk_gamma_from_2D, NSPIN = 1
 number of non-zero elements in sender_buffer = 728
                              sender_size = 728
                       last sender_buffer = 0.003455494942
 number of non-zero elements in receiver_buffer = 676
                            receiver_size = 676
                     last receiver_buffer = -0.000000000000

 Density error is 0.000000000151

       Energy                       Rydberg                            eV
   E_KohnSham              -15.238574445236             -207.331441852405
     E_Harris              -15.238574445236             -207.331441852403
       E_band               -3.984348184988              -54.209838131795
   E_one_elec              -14.034306345134             -190.946533771377
    E_Hartree               +7.687624640301             +104.595499193289
         E_xc               -4.086627928409              -55.601425432300
      E_Ewald               -4.792886299662              -65.210563541534
      E_demet               -0.012378512332               -0.168418300484
      E_descf               +0.000000000000               +0.000000000000
     E_efield               +0.000000000000               +0.000000000000
        E_exx               +0.000000000000               +0.000000000000
      E_Fermi               -0.292234046502               -3.976048182021

 charge density convergence is achieved
 final etot is -207.331441852405 eV

 STATE ENERGY(eV) AND OCCUPATIONS    NSPIN == 1
 1/1 kpoint (Cartesian) = 0.00000 0.00000 0.00000 (2500 pws)
       1     -10.941886       2.000000
       2      -8.038987       2.000000
       3      -4.149731       1.928973
       4      -3.980332       1.035514
       5      -3.980332       1.035514
       6      -1.763218       0.000000
       7      -1.763218       0.000000
       8       1.842151       0.000000

 EFERMI = -3.9760481820214073 eV
 OUT.ABACUS/ final etot is -207.3314418524045095 eV
 correction force for each atom along direction 1 is 0.000197
 correction force for each atom along direction 2 is 0.000000
 correction force for each atom along direction 3 is 0.000000

 ><><><><><><><><><><><><><><><><><><><><><><

    TOTAL-FORCE (eV/Angstrom)

 ><><><><><><><><><><><><><><><><><><><><><><

     atom              x              y              z
      Si1    +1.21785298              0              0
      Si2    -1.21785298              0              0


 ><><><><><><><><><><><><><><><><><><><><><><

 TOTAL-STRESS (KBAR)

 ><><><><><><><><><><><><><><><><><><><><><><

      -16.662079      -0.000000      +0.000000
       -0.000000      +0.654950      -0.000000
       +0.000000      -0.000000      +0.654950
 TOTAL-PRESSURE: -5.117393 KBAR

 Ion relaxation is not converged yet (threshold is +0.001000)

 CARTESIAN COORDINATES ( UNIT = +15.000000 Bohr ).
         atom                   x                   y                   z                 mag                  vx                  vy                  vz
     tauc_Si1     +0.000000000000     +0.000000000000     +0.000000000000     +0.000000000000     +0.000000000000     +0.000000000000     +0.000000000000
     tauc_Si2     +0.299569973983     +0.000000000000     +0.000000000000     +0.000000000000     +0.000000000000     +0.000000000000     +0.000000000000

 Setup the structure factor in plane wave basis.

 -------------------------------------------
 RELAX CELL : 1
 RELAX IONS : 3 (in total: 3)
 -------------------------------------------




 >>>>>>>>>>>>>>>>>>>>>>>>>>>>>>>>>>>>>>>>>>>>>>>>>>>>>>>>>>>>>>>>>>>>>>
 |                                                                    |
 | Search adjacent atoms:                                             |
 | Set the adjacent atoms for each atom and set the periodic boundary |
 | condition for the atoms on real space FFT grid. For k-dependent    |
 | algorithm, we also need to set the sparse H and S matrix element   |
 | for each atom.                                                     |
 |                                                                    |
 <<<<<<<<<<<<<<<<<<<<<<<<<<<<<<<<<<<<<<<<<<<<<<<<<<<<<<<<<<<<<<<<<<<<<<





 SETUP SEARCHING RADIUS FOR PROGRAM TO SEARCH ADJACENT ATOMS
                  longest orb rcut (Bohr) = +8.000
   longest nonlocal projector rcut (Bohr) = +5.008
              searching radius is (Bohr)) = +16.010
         searching radius unit is (Bohr)) = +15.000

 SETUP EXTENDED REAL SPACE GRID FOR GRID INTEGRATION
                        [real space grid] = +72, +72, +72
               [big cell numbers in grid] = +36, +36, +36
           [meshcell numbers in big cell] = +2, +2, +2
                      [extended fft grid] = +20, +20, +20
              [dimension of extened grid] = +77, +77, +77
                            UnitCellTotal = +27
              Atom number in sub-FFT-grid = +2
    Local orbitals number in sub-FFT-grid = +26
                                 lgd_last = +26
                                  lgd_now = +26
 allocate DM , the dimension is +26
        enter setAlltoallvParameter, nblk = +1
checkpoint 2
                                     pnum = +0
                                     prow = +0
                                     pcol = +0
                             nRow_in_proc = +13
                             nCol_in_proc = +7
                                     pnum = +1
                                     prow = +0
                                     pcol = +1
                             nRow_in_proc = +13
                             nCol_in_proc = +7
                                     pnum = +2
                                     prow = +0
                                     pcol = +2
                             nRow_in_proc = +13
                             nCol_in_proc = +6
                                     pnum = +3
                                     prow = +0
                                     pcol = +3
                             nRow_in_proc = +13
                             nCol_in_proc = +6
                                     pnum = +4
                                     prow = +1
                                     pcol = +0
                             nRow_in_proc = +13
                             nCol_in_proc = +7
                                     pnum = +5
                                     prow = +1
                                     pcol = +1
                             nRow_in_proc = +13
                             nCol_in_proc = +7
                                     pnum = +6
                                     prow = +1
                                     pcol = +2
                             nRow_in_proc = +13
                             nCol_in_proc = +6
                                     pnum = +7
                                     prow = +1
                                     pcol = +3
                             nRow_in_proc = +13
                             nCol_in_proc = +6
receiver_size is +676 ; receiver_size of each process is:
+91 +91 +78 +78 +91 +91 +78 +78 
sender_size is +728 ; sender_size of each process is:
+91 +91 +91 +91 +91 +91 +91 +91 
                         gamma_only_local = +1

 LCAO ALGORITHM --------------- ION=  +3  ELEC=  +1--------------------------------

vlocal exchange index is built
                          buffer size(M): = 0
                    buffer index size(M): = 0
 vlocal data are put in sender_buffer, size(M): = +0
 vlocal data are exchanged, received size(M): = +0

K-S equation was solved by genelpa2

eigenvalues were copied to ekb
              cal_dk_gamma_from_2D, NSPIN = +1
 number of non-zero elements in sender_buffer = +728
                              sender_size = +728
                       last sender_buffer = +0.003
 number of non-zero elements in receiver_buffer = +676
                            receiver_size = +676
                     last receiver_buffer = +0.000

 Density error is +0.049696822659

       Energy                       Rydberg                            eV
   E_KohnSham              -15.244381788756             -207.410454814519
     E_Harris              -15.247106824271             -207.447530824776
      E_Fermi               -0.304665499211               -4.145186773284

 LCAO ALGORITHM --------------- ION=   3  ELEC=   2--------------------------------
 vlocal data are put in sender_buffer, size(M): = 0
 vlocal data are exchanged, received size(M): = 0

K-S equation was solved by genelpa2

eigenvalues were copied to ekb
              cal_dk_gamma_from_2D, NSPIN = 1
 number of non-zero elements in sender_buffer = 728
                              sender_size = 728
                       last sender_buffer = 0.002998048473
 number of non-zero elements in receiver_buffer = 676
                            receiver_size = 676
                     last receiver_buffer = -0.000000000000

 Density error is 0.059624237437

       Energy                       Rydberg                            eV
   E_KohnSham              -15.245610197228             -207.427168169199
     E_Harris              -15.248774514262             -207.470220911152
      E_Fermi               -0.299396316891               -4.073495869933

 LCAO ALGORITHM --------------- ION=   3  ELEC=   3--------------------------------
 vlocal data are put in sender_buffer, size(M): = 0
 vlocal data are exchanged, received size(M): = 0

K-S equation was solved by genelpa2

eigenvalues were copied to ekb
              cal_dk_gamma_from_2D, NSPIN = 1
 number of non-zero elements in sender_buffer = 728
                              sender_size = 728
                       last sender_buffer = 0.003474859345
 number of non-zero elements in receiver_buffer = 676
                            receiver_size = 676
                     last receiver_buffer = -0.000000000000

 Density error is 0.008656086072

       Energy                       Rydberg                            eV
   E_KohnSham              -15.246453299045             -207.438639157908
     E_Harris              -15.246516860913             -207.439503961492
      E_Fermi               -0.301798088993               -4.106173655814

 LCAO ALGORITHM --------------- ION=   3  ELEC=   4--------------------------------
 vlocal data are put in sender_buffer, size(M): = 0
 vlocal data are exchanged, received size(M): = 0

K-S equation was solved by genelpa2

eigenvalues were copied to ekb
              cal_dk_gamma_from_2D, NSPIN = 1
 number of non-zero elements in sender_buffer = 728
                              sender_size = 728
                       last sender_buffer = 0.003448073088
 number of non-zero elements in receiver_buffer = 676
                            receiver_size = 676
                     last receiver_buffer = -0.000000000000

 Density error is 0.009547874070

       Energy                       Rydberg                            eV
   E_KohnSham              -15.246416584422             -207.438139629831
     E_Harris              -15.246579270149             -207.440353082710
      E_Fermi               -0.301206237308               -4.098121100535

 LCAO ALGORITHM --------------- ION=   3  ELEC=   5--------------------------------
 vlocal data are put in sender_buffer, size(M): = 0
 vlocal data are exchanged, received size(M): = 0

K-S equation was solved by genelpa2

eigenvalues were copied to ekb
              cal_dk_gamma_from_2D, NSPIN = 1
 number of non-zero elements in sender_buffer = 728
                              sender_size = 728
                       last sender_buffer = 0.003470257482
 number of non-zero elements in receiver_buffer = 676
                            receiver_size = 676
                     last receiver_buffer = 0.000000000000

 Density error is 0.003490021137

       Energy                       Rydberg                            eV
   E_KohnSham              -15.246492393121             -207.439171060101
     E_Harris              -15.246506555864             -207.439363754102
      E_Fermi               -0.301370780003               -4.100359818745

 LCAO ALGORITHM --------------- ION=   3  ELEC=   6--------------------------------
 vlocal data are put in sender_buffer, size(M): = 0
 vlocal data are exchanged, received size(M): = 0

K-S equation was solved by genelpa2

eigenvalues were copied to ekb
              cal_dk_gamma_from_2D, NSPIN = 1
 number of non-zero elements in sender_buffer = 728
                              sender_size = 728
                       last sender_buffer = 0.003469619319
 number of non-zero elements in receiver_buffer = 676
                            receiver_size = 676
                     last receiver_buffer = -0.000000000000

 Density error is 0.000396030277

       Energy                       Rydberg                            eV
   E_KohnSham              -15.246498612455             -207.439255678477
     E_Harris              -15.246498909632             -207.439259721778
      E_Fermi               -0.301589866328               -4.103340641117

 LCAO ALGORITHM --------------- ION=   3  ELEC=   7--------------------------------
 vlocal data are put in sender_buffer, size(M): = 0
 vlocal data are exchanged, received size(M): = 0

K-S equation was solved by genelpa2

eigenvalues were copied to ekb
              cal_dk_gamma_from_2D, NSPIN = 1
 number of non-zero elements in sender_buffer = 728
                              sender_size = 728
                       last sender_buffer = 0.003466159865
 number of non-zero elements in receiver_buffer = 676
                            receiver_size = 676
                     last receiver_buffer = 0.000000000000

 Density error is 0.000360019950

       Energy                       Rydberg                            eV
   E_KohnSham              -15.246498710302             -207.439257009759
     E_Harris              -15.246498810892             -207.439258378355
      E_Fermi               -0.301554122888               -4.102854326672

 LCAO ALGORITHM --------------- ION=   3  ELEC=   8--------------------------------
 vlocal data are put in sender_buffer, size(M): = 0
 vlocal data are exchanged, received size(M): = 0

K-S equation was solved by genelpa2

eigenvalues were copied to ekb
              cal_dk_gamma_from_2D, NSPIN = 1
 number of non-zero elements in sender_buffer = 728
                              sender_size = 728
                       last sender_buffer = 0.003467153126
 number of non-zero elements in receiver_buffer = 676
                            receiver_size = 676
                     last receiver_buffer = -0.000000000000

 Density error is 0.000136580698

       Energy                       Rydberg                            eV
   E_KohnSham              -15.246498758052             -207.439257659430
     E_Harris              -15.246498768032             -207.439257795213
      E_Fermi               -0.301553555399               -4.102846605579

 LCAO ALGORITHM --------------- ION=   3  ELEC=   9--------------------------------
 vlocal data are put in sender_buffer, size(M): = 0
 vlocal data are exchanged, received size(M): = 0

K-S equation was solved by genelpa2

eigenvalues were copied to ekb
              cal_dk_gamma_from_2D, NSPIN = 1
 number of non-zero elements in sender_buffer = 728
                              sender_size = 728
                       last sender_buffer = 0.003466896714
 number of non-zero elements in receiver_buffer = 676
                            receiver_size = 676
                     last receiver_buffer = 0.000000000000

 Density error is 0.000018641694

       Energy                       Rydberg                            eV
   E_KohnSham              -15.246498762775             -207.439257723687
     E_Harris              -15.246498762978             -207.439257726453
      E_Fermi               -0.301553799221               -4.102849922958

 LCAO ALGORITHM --------------- ION=   3  ELEC=  10--------------------------------
 vlocal data are put in sender_buffer, size(M): = 0
 vlocal data are exchanged, received size(M): = 0

K-S equation was solved by genelpa2

eigenvalues were copied to ekb
              cal_dk_gamma_from_2D, NSPIN = 1
 number of non-zero elements in sender_buffer = 728
                              sender_size = 728
                       last sender_buffer = 0.003466865420
 number of non-zero elements in receiver_buffer = 676
                            receiver_size = 676
                     last receiver_buffer = -0.000000000000

 Density error is 0.000000326166

       Energy                       Rydberg                            eV
   E_KohnSham              -15.246498763046             -207.439257727383
     E_Harris              -15.246498763046             -207.439257727384
      E_Fermi               -0.301553877799               -4.102850992065

 LCAO ALGORITHM --------------- ION=   3  ELEC=  11--------------------------------
 vlocal data are put in sender_buffer, size(M): = 0
 vlocal data are exchanged, received size(M): = 0

K-S equation was solved by genelpa2

eigenvalues were copied to ekb
              cal_dk_gamma_from_2D, NSPIN = 1
 number of non-zero elements in sender_buffer = 728
                              sender_size = 728
                       last sender_buffer = 0.003466864875
 number of non-zero elements in receiver_buffer = 676
                            receiver_size = 676
                     last receiver_buffer = 0.000000000000

 Density error is 0.000000014785

       Energy                       Rydberg                            eV
   E_KohnSham              -15.246498763061             -207.439257727576
     E_Harris              -15.246498763061             -207.439257727575
      E_Fermi               -0.301553879806               -4.102851019367

 LCAO ALGORITHM --------------- ION=   3  ELEC=  12--------------------------------
 vlocal data are put in sender_buffer, size(M): = 0
 vlocal data are exchanged, received size(M): = 0

K-S equation was solved by genelpa2

eigenvalues were copied to ekb
              cal_dk_gamma_from_2D, NSPIN = 1
 number of non-zero elements in sender_buffer = 728
                              sender_size = 728
                       last sender_buffer = 0.003466864847
 number of non-zero elements in receiver_buffer = 676
                            receiver_size = 676
                     last receiver_buffer = -0.000000000000

 Density error is 0.000000000952

       Energy                       Rydberg                            eV
   E_KohnSham              -15.246498763077             -207.439257727797
     E_Harris              -15.246498763077             -207.439257727798
       E_band               -4.038797180283              -54.950654718183
   E_one_elec              -14.500596067816             -197.290730918693
    E_Hartree               +7.912880756011             +107.660265876299
         E_xc               -4.116137445946              -56.002923016037
      E_Ewald               -4.528758048302              -61.616914320263
      E_demet               -0.013887957024               -0.188955349103
      E_descf               +0.000000000000               +0.000000000000
     E_efield               +0.000000000000               +0.000000000000
        E_exx               +0.000000000000               +0.000000000000
      E_Fermi               -0.301553879776               -4.102851018957

 charge density convergence is achieved
 final etot is -207.439257727797 eV

 STATE ENERGY(eV) AND OCCUPATIONS    NSPIN == 1
 1/1 kpoint (Cartesian) = 0.00000 0.00000 0.00000 (2500 pws)
       1     -11.232099       2.000000
       2      -7.919173       2.000000
       3      -4.219112       1.773126
       4      -4.116575       1.113437
       5      -4.116575       1.113437
       6      -1.623244       0.000000
       7      -1.623244       0.000000
       8       2.279639       0.000000

 EFERMI = -4.1028510189566152 eV
 OUT.ABACUS/ final etot is -207.4392577277965870 eV
 correction force for each atom along direction 1 is 0.000123
 correction force for each atom along direction 2 is 0.000000
 correction force for each atom along direction 3 is 0.000000

 ><><><><><><><><><><><><><><><><><><><><><><

    TOTAL-FORCE (eV/Angstrom)

 ><><><><><><><><><><><><><><><><><><><><><><

     atom              x              y              z
      Si1    +0.73215220              0              0
      Si2    -0.73215220              0              0


 ><><><><><><><><><><><><><><><><><><><><><><

 TOTAL-STRESS (KBAR)

 ><><><><><><><><><><><><><><><><><><><><><><

      -11.162271      +0.000000      +0.000000
       +0.000000      +0.644297      -0.000000
       +0.000000      -0.000000      +0.644297
 TOTAL-PRESSURE: -3.291226 KBAR

 Ion relaxation is not converged yet (threshold is +0.001000)

 CARTESIAN COORDINATES ( UNIT = +15.000000 Bohr ).
         atom                   x                   y                   z                 mag                  vx                  vy                  vz
     tauc_Si1     +0.000000000000     +0.000000000000     +0.000000000000     +0.000000000000     +0.000000000000     +0.000000000000     +0.000000000000
     tauc_Si2     +0.285732380320     +0.000000000000     +0.000000000000     +0.000000000000     +0.000000000000     +0.000000000000     +0.000000000000

 Setup the structure factor in plane wave basis.

 -------------------------------------------
 RELAX CELL : 1
 RELAX IONS : 4 (in total: 4)
 -------------------------------------------




 >>>>>>>>>>>>>>>>>>>>>>>>>>>>>>>>>>>>>>>>>>>>>>>>>>>>>>>>>>>>>>>>>>>>>>
 |                                                                    |
 | Search adjacent atoms:                                             |
 | Set the adjacent atoms for each atom and set the periodic boundary |
 | condition for the atoms on real space FFT grid. For k-dependent    |
 | algorithm, we also need to set the sparse H and S matrix element   |
 | for each atom.                                                     |
 |                                                                    |
 <<<<<<<<<<<<<<<<<<<<<<<<<<<<<<<<<<<<<<<<<<<<<<<<<<<<<<<<<<<<<<<<<<<<<<





 SETUP SEARCHING RADIUS FOR PROGRAM TO SEARCH ADJACENT ATOMS
                  longest orb rcut (Bohr) = +8.000
   longest nonlocal projector rcut (Bohr) = +5.008
              searching radius is (Bohr)) = +16.010
         searching radius unit is (Bohr)) = +15.000

 SETUP EXTENDED REAL SPACE GRID FOR GRID INTEGRATION
                        [real space grid] = +72, +72, +72
               [big cell numbers in grid] = +36, +36, +36
           [meshcell numbers in big cell] = +2, +2, +2
                      [extended fft grid] = +20, +20, +20
              [dimension of extened grid] = +77, +77, +77
                            UnitCellTotal = +27
              Atom number in sub-FFT-grid = +2
    Local orbitals number in sub-FFT-grid = +26
                                 lgd_last = +26
                                  lgd_now = +26
 allocate DM , the dimension is +26
        enter setAlltoallvParameter, nblk = +1
checkpoint 2
                                     pnum = +0
                                     prow = +0
                                     pcol = +0
                             nRow_in_proc = +13
                             nCol_in_proc = +7
                                     pnum = +1
                                     prow = +0
                                     pcol = +1
                             nRow_in_proc = +13
                             nCol_in_proc = +7
                                     pnum = +2
                                     prow = +0
                                     pcol = +2
                             nRow_in_proc = +13
                             nCol_in_proc = +6
                                     pnum = +3
                                     prow = +0
                                     pcol = +3
                             nRow_in_proc = +13
                             nCol_in_proc = +6
                                     pnum = +4
                                     prow = +1
                                     pcol = +0
                             nRow_in_proc = +13
                             nCol_in_proc = +7
                                     pnum = +5
                                     prow = +1
                                     pcol = +1
                             nRow_in_proc = +13
                             nCol_in_proc = +7
                                     pnum = +6
                                     prow = +1
                                     pcol = +2
                             nRow_in_proc = +13
                             nCol_in_proc = +6
                                     pnum = +7
                                     prow = +1
                                     pcol = +3
                             nRow_in_proc = +13
                             nCol_in_proc = +6
receiver_size is +676 ; receiver_size of each process is:
+91 +91 +78 +78 +91 +91 +78 +78 
sender_size is +728 ; sender_size of each process is:
+91 +91 +91 +91 +91 +91 +91 +91 
                         gamma_only_local = +1

 LCAO ALGORITHM --------------- ION=  +4  ELEC=  +1--------------------------------

vlocal exchange index is built
                          buffer size(M): = 0
                    buffer index size(M): = 0
 vlocal data are put in sender_buffer, size(M): = +0
 vlocal data are exchanged, received size(M): = +0

K-S equation was solved by genelpa2

eigenvalues were copied to ekb
              cal_dk_gamma_from_2D, NSPIN = +1
 number of non-zero elements in sender_buffer = +728
                              sender_size = +728
                       last sender_buffer = +0.003
 number of non-zero elements in receiver_buffer = +676
                            receiver_size = +676
                     last receiver_buffer = +0.000

 Density error is +0.097955004240

       Energy                       Rydberg                            eV
   E_KohnSham              -15.239065038997             -207.338116722955
     E_Harris              -15.252083620546             -207.515243611894
      E_Fermi               -0.314389839524               -4.277493210834

 LCAO ALGORITHM --------------- ION=   4  ELEC=   2--------------------------------
 vlocal data are put in sender_buffer, size(M): = 0
 vlocal data are exchanged, received size(M): = 0

K-S equation was solved by genelpa2

eigenvalues were copied to ekb
              cal_dk_gamma_from_2D, NSPIN = 1
 number of non-zero elements in sender_buffer = 728
                              sender_size = 728
                       last sender_buffer = 0.002288828895
 number of non-zero elements in receiver_buffer = 676
                            receiver_size = 676
                     last receiver_buffer = -0.000000000000

 Density error is 0.133093093853

       Energy                       Rydberg                            eV
   E_KohnSham              -15.248244574278             -207.463010707769
     E_Harris              -15.263551333307             -207.671269848477
      E_Fermi               -0.303828556098               -4.133799578044

 LCAO ALGORITHM --------------- ION=   4  ELEC=   3--------------------------------
 vlocal data are put in sender_buffer, size(M): = 0
 vlocal data are exchanged, received size(M): = 0

K-S equation was solved by genelpa2

eigenvalues were copied to ekb
              cal_dk_gamma_from_2D, NSPIN = 1
 number of non-zero elements in sender_buffer = 728
                              sender_size = 728
                       last sender_buffer = 0.003252637067
 number of non-zero elements in receiver_buffer = 676
                            receiver_size = 676
                     last receiver_buffer = -0.000000000000

 Density error is 0.050739206044

       Energy                       Rydberg                            eV
   E_KohnSham              -15.248942898514             -207.472511896430
     E_Harris              -15.250541232667             -207.494258348219
      E_Fermi               -0.311040858868               -4.231927991416

 LCAO ALGORITHM --------------- ION=   4  ELEC=   4--------------------------------
 vlocal data are put in sender_buffer, size(M): = 0
 vlocal data are exchanged, received size(M): = 0

K-S equation was solved by genelpa2

eigenvalues were copied to ekb
              cal_dk_gamma_from_2D, NSPIN = 1
 number of non-zero elements in sender_buffer = 728
                              sender_size = 728
                       last sender_buffer = 0.003244787794
 number of non-zero elements in receiver_buffer = 676
                            receiver_size = 676
                     last receiver_buffer = -0.000000000000

 Density error is 0.013960699239

       Energy                       Rydberg                            eV
   E_KohnSham              -15.249689636965             -207.482671794270
     E_Harris              -15.249833759795             -207.484632685976
      E_Fermi               -0.309909132165               -4.216530059676

 LCAO ALGORITHM --------------- ION=   4  ELEC=   5--------------------------------
 vlocal data are put in sender_buffer, size(M): = 0
 vlocal data are exchanged, received size(M): = 0

K-S equation was solved by genelpa2

eigenvalues were copied to ekb
              cal_dk_gamma_from_2D, NSPIN = 1
 number of non-zero elements in sender_buffer = 728
                              sender_size = 728
                       last sender_buffer = 0.003285539392
 number of non-zero elements in receiver_buffer = 676
                            receiver_size = 676
                     last receiver_buffer = 0.000000000000

 Density error is 0.018098805765

       Energy                       Rydberg                            eV
   E_KohnSham              -15.249673087442             -207.482446626466
     E_Harris              -15.249888264468             -207.485374260102
      E_Fermi               -0.310464977904               -4.224092728933

 LCAO ALGORITHM --------------- ION=   4  ELEC=   6--------------------------------
 vlocal data are put in sender_buffer, size(M): = 0
 vlocal data are exchanged, received size(M): = 0

K-S equation was solved by genelpa2

eigenvalues were copied to ekb
              cal_dk_gamma_from_2D, NSPIN = 1
 number of non-zero elements in sender_buffer = 728
                              sender_size = 728
                       last sender_buffer = 0.003285330852
 number of non-zero elements in receiver_buffer = 676
                            receiver_size = 676
                     last receiver_buffer = 0.000000000000

 Density error is 0.007183523168

       Energy                       Rydberg                            eV
   E_KohnSham              -15.249721209205             -207.483101356637
     E_Harris              -15.249757989020             -207.483601771698
      E_Fermi               -0.310757373438               -4.228070974272

 LCAO ALGORITHM --------------- ION=   4  ELEC=   7--------------------------------
 vlocal data are put in sender_buffer, size(M): = 0
 vlocal data are exchanged, received size(M): = 0

K-S equation was solved by genelpa2

eigenvalues were copied to ekb
              cal_dk_gamma_from_2D, NSPIN = 1
 number of non-zero elements in sender_buffer = 728
                              sender_size = 728
                       last sender_buffer = 0.003281208246
 number of non-zero elements in receiver_buffer = 676
                            receiver_size = 676
                     last receiver_buffer = 0.000000000000

 Density error is 0.003394624784

       Energy                       Rydberg                            eV
   E_KohnSham              -15.249741604807             -207.483378853035
     E_Harris              -15.249746595994             -207.483446761622
      E_Fermi               -0.310727399967               -4.227663164281

 LCAO ALGORITHM --------------- ION=   4  ELEC=   8--------------------------------
[...]
                             nCol_in_proc = +6
receiver_size is +676 ; receiver_size of each process is:
+91 +91 +78 +78 +91 +91 +78 +78 
sender_size is +728 ; sender_size of each process is:
+91 +91 +91 +91 +91 +91 +91 +91 
                         gamma_only_local = +1

 LCAO ALGORITHM --------------- ION= +50  ELEC=  +1--------------------------------

vlocal exchange index is built
                          buffer size(M): = 0
                    buffer index size(M): = 0
 vlocal data are put in sender_buffer, size(M): = +0
 vlocal data are exchanged, received size(M): = +0

K-S equation was solved by genelpa2

eigenvalues were copied to ekb
              cal_dk_gamma_from_2D, NSPIN = +1
 number of non-zero elements in sender_buffer = +728
                              sender_size = +728
                       last sender_buffer = +0.003
 number of non-zero elements in receiver_buffer = +676
                            receiver_size = +676
                     last receiver_buffer = +0.000

 Density error is +0.001008136271

       Energy                       Rydberg                            eV
   E_KohnSham              -15.250468705450             -207.493271564800
     E_Harris              -15.250470119500             -207.493290803945
      E_Fermi               -0.310685336995               -4.227090868176

 LCAO ALGORITHM --------------- ION=  50  ELEC=   2--------------------------------
 vlocal data are put in sender_buffer, size(M): = 0
 vlocal data are exchanged, received size(M): = 0

K-S equation was solved by genelpa2

eigenvalues were copied to ekb
              cal_dk_gamma_from_2D, NSPIN = 1
 number of non-zero elements in sender_buffer = 728
                              sender_size = 728
                       last sender_buffer = 0.003294646156
 number of non-zero elements in receiver_buffer = 676
                            receiver_size = 676
                     last receiver_buffer = -0.000000000000

 Density error is 0.002747745531

       Energy                       Rydberg                            eV
   E_KohnSham              -15.250468025994             -207.493262320330
     E_Harris              -15.250472036189             -207.493316881834
      E_Fermi               -0.310614659845               -4.226129256224

 LCAO ALGORITHM --------------- ION=  50  ELEC=   3--------------------------------
 vlocal data are put in sender_buffer, size(M): = 0
 vlocal data are exchanged, received size(M): = 0

K-S equation was solved by genelpa2

eigenvalues were copied to ekb
              cal_dk_gamma_from_2D, NSPIN = 1
 number of non-zero elements in sender_buffer = 728
                              sender_size = 728
                       last sender_buffer = 0.003298230713
 number of non-zero elements in receiver_buffer = 676
                            receiver_size = 676
                     last receiver_buffer = -0.000000000000

 Density error is 0.000041391261

       Energy                       Rydberg                            eV
   E_KohnSham              -15.250469817350             -207.493286692973
     E_Harris              -15.250469818166             -207.493286704076
      E_Fermi               -0.310639998678               -4.226474008738

 LCAO ALGORITHM --------------- ION=  50  ELEC=   4--------------------------------
 vlocal data are put in sender_buffer, size(M): = 0
 vlocal data are exchanged, received size(M): = 0

K-S equation was solved by genelpa2

eigenvalues were copied to ekb
              cal_dk_gamma_from_2D, NSPIN = 1
 number of non-zero elements in sender_buffer = 728
                              sender_size = 728
                       last sender_buffer = 0.003298540689
 number of non-zero elements in receiver_buffer = 676
                            receiver_size = 676
                     last receiver_buffer = 0.000000000000

 Density error is 0.000052474601

       Energy                       Rydberg                            eV
   E_KohnSham              -15.250469816645             -207.493286683386
     E_Harris              -15.250469823016             -207.493286770070
      E_Fermi               -0.310643758385               -4.226525162177

 LCAO ALGORITHM --------------- ION=  50  ELEC=   5--------------------------------
 vlocal data are put in sender_buffer, size(M): = 0
 vlocal data are exchanged, received size(M): = 0

K-S equation was solved by genelpa2

eigenvalues were copied to ekb
              cal_dk_gamma_from_2D, NSPIN = 1
 number of non-zero elements in sender_buffer = 728
                              sender_size = 728
                       last sender_buffer = 0.003298387665
 number of non-zero elements in receiver_buffer = 676
                            receiver_size = 676
                     last receiver_buffer = -0.000000000000

 Density error is 0.000020021742

       Energy                       Rydberg                            eV
   E_KohnSham              -15.250469819433             -207.493286721317
     E_Harris              -15.250469820168             -207.493286731317
      E_Fermi               -0.310642863694               -4.226512989278

 LCAO ALGORITHM --------------- ION=  50  ELEC=   6--------------------------------
 vlocal data are put in sender_buffer, size(M): = 0
 vlocal data are exchanged, received size(M): = 0

K-S equation was solved by genelpa2

eigenvalues were copied to ekb
              cal_dk_gamma_from_2D, NSPIN = 1
 number of non-zero elements in sender_buffer = 728
                              sender_size = 728
                       last sender_buffer = 0.003298350473
 number of non-zero elements in receiver_buffer = 676
                            receiver_size = 676
                     last receiver_buffer = -0.000000000000

 Density error is 0.000003945889

       Energy                       Rydberg                            eV
   E_KohnSham              -15.250469819252             -207.493286718851
     E_Harris              -15.250469819261             -207.493286718976
      E_Fermi               -0.310641686705               -4.226496975519

 LCAO ALGORITHM --------------- ION=  50  ELEC=   7--------------------------------
 vlocal data are put in sender_buffer, size(M): = 0
 vlocal data are exchanged, received size(M): = 0

K-S equation was solved by genelpa2

eigenvalues were copied to ekb
              cal_dk_gamma_from_2D, NSPIN = 1
 number of non-zero elements in sender_buffer = 728
                              sender_size = 728
                       last sender_buffer = 0.003298361392
 number of non-zero elements in receiver_buffer = 676
                            receiver_size = 676
                     last receiver_buffer = 0.000000000000

 Density error is 0.000000140293

       Energy                       Rydberg                            eV
   E_KohnSham              -15.250469819350             -207.493286720185
     E_Harris              -15.250469819350             -207.493286720185
      E_Fermi               -0.310641950651               -4.226500566691

 LCAO ALGORITHM --------------- ION=  50  ELEC=   8--------------------------------
 vlocal data are put in sender_buffer, size(M): = 0
 vlocal data are exchanged, received size(M): = 0

K-S equation was solved by genelpa2

eigenvalues were copied to ekb
              cal_dk_gamma_from_2D, NSPIN = 1
 number of non-zero elements in sender_buffer = 728
                              sender_size = 728
                       last sender_buffer = 0.003298360641
 number of non-zero elements in receiver_buffer = 676
                            receiver_size = 676
                     last receiver_buffer = -0.000000000000

 Density error is 0.000000010556

       Energy                       Rydberg                            eV
   E_KohnSham              -15.250469819340             -207.493286720060
     E_Harris              -15.250469819340             -207.493286720059
      E_Fermi               -0.310641943486               -4.226500469201

 LCAO ALGORITHM --------------- ION=  50  ELEC=   9--------------------------------
 vlocal data are put in sender_buffer, size(M): = 0
 vlocal data are exchanged, received size(M): = 0

K-S equation was solved by genelpa2

eigenvalues were copied to ekb
              cal_dk_gamma_from_2D, NSPIN = 1
 number of non-zero elements in sender_buffer = 728
                              sender_size = 728
                       last sender_buffer = 0.003298360719
 number of non-zero elements in receiver_buffer = 676
                            receiver_size = 676
                     last receiver_buffer = 0.000000000000

 Density error is 0.000000002366

       Energy                       Rydberg                            eV
   E_KohnSham              -15.250469819373             -207.493286720497
     E_Harris              -15.250469819373             -207.493286720501
      E_Fermi               -0.310641943687               -4.226500471944

 LCAO ALGORITHM --------------- ION=  50  ELEC=  10--------------------------------
 vlocal data are put in sender_buffer, size(M): = 0
 vlocal data are exchanged, received size(M): = 0

K-S equation was solved by genelpa2

eigenvalues were copied to ekb
              cal_dk_gamma_from_2D, NSPIN = 1
 number of non-zero elements in sender_buffer = 728
                              sender_size = 728
                       last sender_buffer = 0.003298360717
 number of non-zero elements in receiver_buffer = 676
                            receiver_size = 676
                     last receiver_buffer = -0.000000000000

 Density error is 0.000000001231

       Energy                       Rydberg                            eV
   E_KohnSham              -15.250469819338             -207.493286720031
     E_Harris              -15.250469819338             -207.493286720030
      E_Fermi               -0.310641943695               -4.226500472048

 LCAO ALGORITHM --------------- ION=  50  ELEC=  11--------------------------------
 vlocal data are put in sender_buffer, size(M): = 0
 vlocal data are exchanged, received size(M): = 0

K-S equation was solved by genelpa2

eigenvalues were copied to ekb
              cal_dk_gamma_from_2D, NSPIN = 1
 number of non-zero elements in sender_buffer = 728
                              sender_size = 728
                       last sender_buffer = 0.003298360717
 number of non-zero elements in receiver_buffer = 676
                            receiver_size = 676
                     last receiver_buffer = -0.000000000000

 Density error is 0.000000000139

       Energy                       Rydberg                            eV
   E_KohnSham              -15.250469819357             -207.493286720286
     E_Harris              -15.250469819357             -207.493286720285
       E_band               -4.098656056076              -55.765076504847
   E_one_elec              -15.002820627352             -204.123846603924
    E_Hartree               +8.154680632615             +110.950121973807
         E_xc               -4.147603032904              -56.431034289576
      E_Ewald               -4.239727256764              -57.684448657904
      E_demet               -0.014999534951               -0.204079142690
      E_descf               +0.000000000000               +0.000000000000
     E_efield               +0.000000000000               +0.000000000000
        E_exx               +0.000000000000               +0.000000000000
      E_Fermi               -0.310641943699               -4.226500472104

 charge density convergence is achieved
 final etot is -207.493286720286 eV

 STATE ENERGY(eV) AND OCCUPATIONS    NSPIN == 1
 1/1 kpoint (Cartesian) = 0.00000 0.00000 0.00000 (2500 pws)
       1     -11.538019       2.000000
       2      -7.799936       2.000000
       3      -4.302618       1.571166
       4      -4.252674       1.214417
       5      -4.252674       1.214417
       6      -1.460555       0.000000
       7      -1.460555       0.000000
       8       2.777180       0.000000

 EFERMI = -4.2265004721044628 eV
 OUT.ABACUS/ final etot is -207.4932867202861644 eV
 correction force for each atom along direction 1 is -0.000047
 correction force for each atom along direction 2 is 0.000000
 correction force for each atom along direction 3 is -0.000000

 ><><><><><><><><><><><><><><><><><><><><><><

    TOTAL-FORCE (eV/Angstrom)

 ><><><><><><><><><><><><><><><><><><><><><><

     atom              x              y              z
      Si1              0              0              0
      Si2              0              0              0


 ><><><><><><><><><><><><><><><><><><><><><><

 TOTAL-STRESS (KBAR)

 ><><><><><><><><><><><><><><><><><><><><><><

       -4.544191      +0.000000      -0.000000
       +0.000000      +0.626212      +0.000000
       -0.000000      +0.000000      +0.626212
 TOTAL-PRESSURE: -1.097255 KBAR

 Ion relaxation is converged!

 Energy difference (Ry) = +0.000000

 Largest gradient is (eV/A) = +0.000000
 end of geometry optimization
                                    istep = +5
                         update iteration = +20

 CARTESIAN COORDINATES ( UNIT = +15.000000 Bohr ).
         atom                   x                   y                   z                 mag                  vx                  vy                  vz
     tauc_Si1     +0.000000000000     +0.000000000000     +0.000000000000     +0.000000000000     +0.000000000000     +0.000000000000     +0.000000000000
     tauc_Si2     +0.285810224720     -0.000000000000     -0.000000000000     +0.000000000000     +0.000000000000     +0.000000000000     +0.000000000000


 Lattice relaxation is not converged yet (threshold is +0.010000000000)

                          Volume (Bohr^3) = +3358.166901405837
                            Volume (A^3)) = +497.628398371951

 Lattice vectors: (Cartesian coordinate: in unit of a_0)
      +0.993028084697     -0.000000000000     -0.000000000000
      -0.000000000000     +1.000998632491     -0.000000000000
      -0.000000000000     -0.000000000000     +1.000998632491
 Reciprocal vectors: (Cartesian coordinate: in unit of 2 pi/a_0)
      +1.007020864173     +0.000000000000     +0.000000000000
      +0.000000000000     +0.999002363781     +0.000000000000
      +0.000000000000     +0.000000000000     +0.999002363780
 DONE : SETUP UNITCELL Time : 82.023718357086 (SEC)


 SETUP K-POINTS
                                    nspin = 1

  KPOINTS            DIRECT_X            DIRECT_Y            DIRECT_Z              WEIGHT
        1      0.000000000000      0.000000000000      0.000000000000      2.000000000000

           k-point number in this process = 1
       minimum distributed K point number = 1

  KPOINTS         CARTESIAN_X         CARTESIAN_Y         CARTESIAN_Z              WEIGHT
        1      0.000000000000      0.000000000000      0.000000000000      2.000000000000

  KPOINTS            DIRECT_X            DIRECT_Y            DIRECT_Z              WEIGHT
        1      0.000000000000      0.000000000000      0.000000000000      2.000000000000
 DONE : INIT K-POINTS Time : 82.023795366287 (SEC)

 Setup the Vl+Vh+Vxc according to new structure factor and new charge.
 DONE : LOCAL POTENTIAL Time : 82.039622306824 (SEC)



 --------------------------------------------
 !FINAL_ETOT_IS -207.4932867202861644 eV
 --------------------------------------------






  |CLASS_NAME---------|NAME---------------|TIME(Sec)-----|CALLS----|AVG------|PER%-------
                                      total       82.04779       131      0.63    100.00%
               Run_lcao           lcao_line       82.02257         1     82.02     99.97%
              ppcell_vl           init_vloc        0.16032        21      0.01      0.20%
              Potential            init_pot        0.70919       101      0.01      0.86%
              Potential       set_local_pot        0.13291       101      0.00      0.16%
               PW_Basis          recip2real        0.84954       766      0.00      1.04%
               PW_Basis    gathers_scatterp        0.42598       766      0.00      0.52%
                 Charge          atomic_rho        1.58900        61      0.03      1.94%
              Potential            v_of_rho        2.98514       604      0.00      3.64%
          XC_Functional                v_xc        1.44227       654      0.00      1.76%
           H_Hartree_pw           v_hartree        1.57170       604      0.00      1.92%
               PW_Basis          real2recip        1.78159      1860      0.00      2.17%
               PW_Basis    gatherp_scatters        0.74621      1860      0.00      0.91%
              Potential          set_vr_eff        0.12863       604      0.00      0.16%
            ORB_control      set_orb_tables        0.55062         1      0.55      0.67%
         ORB_gen_tables          gen_tables        0.55061         1      0.55      0.67%
          ORB_table_phi          init_Table        0.34014         1      0.34      0.41%
          ORB_table_phi      cal_ST_Phi12_R        0.33546        70      0.00      0.41%
              LOOP_ions            opt_ions       81.34541         1     81.35     99.14%
        ESolver_KS_LCAO                 Run       63.90273        50      1.28     77.88%
        ESolver_KS_LCAO           beforescf        1.51735        50      0.03      1.85%
        ESolver_KS_LCAO        beforesolver       40.86313        25      1.63     49.80%
        ESolver_KS_LCAO     set_matrix_grid        1.42445        50      0.03      1.74%
         Grid_Technique                init        1.41764        50      0.03      1.73%
           Grid_BigCellgrid_expansion_index        0.86467       100      0.01      1.05%
            HSolverLCAO               solve       56.01475       503      0.11     68.27%
             HamiltLCAO            updateHk       24.24383       503      0.05     29.55%
            LCAO_Hamilt          cal_Hgamma       24.16845       503      0.05     29.46%
         Gint_interface            cal_gint       66.82054      1056      0.06     81.44%
             Gint_Gamma           distri_vl       40.64297       252      0.16     49.54%
              DiagoElpa          elpa_solve        0.81110       503      0.00      0.99%
          ElecStateLCAO            psiToRho       30.94574       503      0.06     37.72%
                 Charge             mix_rho        2.11351       453      0.00      2.58%
              LOOP_ions        force_stress       17.43877        50      0.35     21.25%
      Force_Stress_LCAO      getForceStress       15.06738        50      0.30     18.36%
                 Forces       cal_force_loc        0.10302        50      0.00      0.13%
            Stress_Func          stress_loc        0.68094        50      0.01      0.83%
            Stress_Func           stress_ew        0.12555        50      0.00      0.15%
       Force_LCAO_gamma        ftable_gamma       12.50989        50      0.25     15.25%
       Force_LCAO_gamma      allocate_gamma        0.14246        50      0.00      0.17%
       Force_LCAO_gamma        cal_fvl_dphi       12.32425        50      0.25     15.02%
 ----------------------------------------------------------------------------------------

 CLASS_NAME---------|NAME---------------|MEMORY(MB)--------
                                         519.7792
        ORB_table_phi               Jl(x)        97.8037
         Charge_Pulay                Rrho         3.1641
         Charge_Pulay               dRrho         2.7686
         Charge_Pulay                drho         2.7686
        Grid_Meshcell        index2normal         1.7415
        Grid_Meshcell         index2ucell         1.7415
        ORB_table_phi         Table_SR&TR         1.2245
 ----------------------------------------------------------

 Start  Time  : Wed Jul  6 09:57:14 2022
 Finish Time  : Wed Jul  6 09:58:36 2022
 Total  Time  : 0 h 1 mins 22 secs 
