 DBCSR| Multiplication driver                                                SMM
 DBCSR| Multrec recursion limit                                              512
 DBCSR| Multiplication stack size                                           1000
 DBCSR| Multiplication size stacks                                             3
 DBCSR| Use subcommunicators                                                   T
 DBCSR| Use MPI combined types                                                 F
 DBCSR| Use MPI memory allocation                                              T
 DBCSR| Use Communication thread                                               T
 DBCSR| Communication thread load                                             87


  **** **** ******  **  PROGRAM STARTED AT               2016-05-09 11:59:11.783
 ***** ** ***  *** **   PROGRAM STARTED ON                   lauri-Lenovo-Z50-70
 **    ****   ******    PROGRAM STARTED BY                                 lauri
 ***** **    ** ** **   PROGRAM PROCESS ID                                  5612
  **** **  *******  **  PROGRAM STARTED IN /home/lauri/Dropbox/nomad-dev/nomad-l
                                           ab-base/parsers/cp2k/test/unittests/c
                                           p2k_2.6.2/geo_opt

 CP2K| version string:                                        CP2K version 2.6.2
 CP2K| source code revision number:                                    svn:15893
 CP2K| is freely available from                             http://www.cp2k.org/
 CP2K| Program compiled at                           ke 4.11.2015 08.48.42 +0200
 CP2K| Program compiled on                                   lauri-Lenovo-Z50-70
 CP2K| Program compiled for                          Linux-x86-64-gfortran_basic
 CP2K| Input file name                                                   H2O.inp

 GLOBAL| Force Environment number                                              1
 GLOBAL| Basis set file name                                        ../BASIS_SET
 GLOBAL| Geminal file name                                         BASIS_GEMINAL
 GLOBAL| Potential file name                                   ../GTH_POTENTIALS
 GLOBAL| MM Potential file name                                     MM_POTENTIAL
 GLOBAL| Coordinate file name                                      __STD_INPUT__
 GLOBAL| Method name                                                        CP2K
 GLOBAL| Project name                                                        H2O
 GLOBAL| Preferred FFT library                                             FFTW3
 GLOBAL| Preferred diagonalization lib.                                       SL
 GLOBAL| Run type                                                        GEO_OPT
 GLOBAL| All-to-all communication in single precision                          F
 GLOBAL| FFTs using library dependent lengths                                  F
 GLOBAL| Global print level                                                 HIGH
 GLOBAL| Total number of message passing processes                             1
 GLOBAL| Number of threads for this process                                    1
 GLOBAL| This output is from process                                           0

 MEMORY| system memory details [Kb]
 MEMORY|                        rank 0           min           max       average
 MEMORY| MemTotal              8070380       8070380       8070380       8070380
 MEMORY| MemFree               3393448       3393448       3393448       3393448
 MEMORY| Buffers                894928        894928        894928        894928
 MEMORY| Cached                1914816       1914816       1914816       1914816
 MEMORY| Slab                   467252        467252        467252        467252
 MEMORY| SReclaimable           431224        431224        431224        431224
 MEMORY| MemLikelyFree         6634416       6634416       6634416       6634416


 *** Fundamental physical constants (SI units) ***

 *** Literature: B. J. Mohr and B. N. Taylor,
 ***             CODATA recommended values of the fundamental physical
 ***             constants: 2006, Web Version 5.1
 ***             http://physics.nist.gov/constants

 Speed of light in vacuum [m/s]                             2.99792458000000E+08
 Magnetic constant or permeability of vacuum [N/A**2]       1.25663706143592E-06
 Electric constant or permittivity of vacuum [F/m]          8.85418781762039E-12
 Planck constant (h) [J*s]                                  6.62606896000000E-34
 Planck constant (h-bar) [J*s]                              1.05457162825177E-34
 Elementary charge [C]                                      1.60217648700000E-19
 Electron mass [kg]                                         9.10938215000000E-31
 Electron g factor [ ]                                     -2.00231930436220E+00
 Proton mass [kg]                                           1.67262163700000E-27
 Fine-structure constant                                    7.29735253760000E-03
 Rydberg constant [1/m]                                     1.09737315685270E+07
 Avogadro constant [1/mol]                                  6.02214179000000E+23
 Boltzmann constant [J/K]                                   1.38065040000000E-23
 Atomic mass unit [kg]                                      1.66053878200000E-27
 Bohr radius [m]                                            5.29177208590000E-11

 *** Conversion factors ***

 [u] -> [a.u.]                                              1.82288848426455E+03
 [Angstrom] -> [Bohr] = [a.u.]                              1.88972613288564E+00
 [a.u.] = [Bohr] -> [Angstrom]                              5.29177208590000E-01
 [a.u.] -> [s]                                              2.41888432650478E-17
 [a.u.] -> [fs]                                             2.41888432650478E-02
 [a.u.] -> [J]                                              4.35974393937059E-18
 [a.u.] -> [N]                                              8.23872205491840E-08
 [a.u.] -> [K]                                              3.15774647902944E+05
 [a.u.] -> [kJ/mol]                                         2.62549961709828E+03
 [a.u.] -> [kcal/mol]                                       6.27509468713739E+02
 [a.u.] -> [Pa]                                             2.94210107994716E+13
 [a.u.] -> [bar]                                            2.94210107994716E+08
 [a.u.] -> [atm]                                            2.90362800883016E+08
 [a.u.] -> [eV]                                             2.72113838565563E+01
 [a.u.] -> [Hz]                                             6.57968392072181E+15
 [a.u.] -> [1/cm] (wave numbers)                            2.19474631370540E+05
 [a.u./Bohr**2] -> [1/cm]                                   5.14048714338585E+03


 CELL_TOP| Volume [angstrom^3]:                                         1912.997
 CELL_TOP| Vector a [angstrom    12.414     0.000     0.000    |a| =      12.414
 CELL_TOP| Vector b [angstrom     0.000    12.414     0.000    |b| =      12.414
 CELL_TOP| Vector c [angstrom     0.000     0.000    12.414    |c| =      12.414
 CELL_TOP| Angle (b,c), alpha [degree]:                                   90.000
 CELL_TOP| Angle (a,c), beta  [degree]:                                   90.000
 CELL_TOP| Angle (a,b), gamma [degree]:                                   90.000
 CELL_TOP| Numerically orthorhombic:                                         YES


 SUBCELL GRID  INFO FOR THE NONBONDED NEIGHBOR LISTS

    NUMBER OF SUBCELLS             ::                   5         5         5
    NUMBER OF PERIODIC      IMAGES ::                   1         1         1
    NUMBER OF INTERACTING SUBCELLS ::                   2         2         2

 GENERATE|  Preliminary Number of Bonds generated:                             0
 GENERATE|  Achieved consistency in connectivity generation.

 CELL| Volume [angstrom^3]:                                             1912.997
 CELL| Vector a [angstrom]:      12.414     0.000     0.000    |a| =      12.414
 CELL| Vector b [angstrom]:       0.000    12.414     0.000    |b| =      12.414
 CELL| Vector c [angstrom]:       0.000     0.000    12.414    |c| =      12.414
 CELL| Angle (b,c), alpha [degree]:                                       90.000
 CELL| Angle (a,c), beta  [degree]:                                       90.000
 CELL| Angle (a,b), gamma [degree]:                                       90.000
 CELL| Numerically orthorhombic:                                             YES

 CELL_REF| Volume [angstrom^3]:                                         1912.997
 CELL_REF| Vector a [angstrom    12.414     0.000     0.000    |a| =      12.414
 CELL_REF| Vector b [angstrom     0.000    12.414     0.000    |b| =      12.414
 CELL_REF| Vector c [angstrom     0.000     0.000    12.414    |c| =      12.414
 CELL_REF| Angle (b,c), alpha [degree]:                                   90.000
 CELL_REF| Angle (a,c), beta  [degree]:                                   90.000
 CELL_REF| Angle (a,b), gamma [degree]:                                   90.000
 CELL_REF| Numerically orthorhombic:                                         YES

 *******************************************************************************
 *******************************************************************************
 **                                                                           **
 **     #####                         ##              ##                      **
 **    ##   ##            ##          ##              ##                      **
 **   ##     ##                       ##            ######                    **
 **   ##     ##  ##   ##  ##   #####  ##  ##   ####   ##    #####    #####    **
 **   ##     ##  ##   ##  ##  ##      ## ##   ##      ##   ##   ##  ##   ##   **
 **   ##  ## ##  ##   ##  ##  ##      ####     ###    ##   ######   ######    **
 **    ##  ###   ##   ##  ##  ##      ## ##      ##   ##   ##       ##        **
 **     #######   #####   ##   #####  ##  ##  ####    ##    #####   ##        **
 **           ##                                                    ##        **
 **                                                                           **
 **                                                ... make the atoms dance   **
 **                                                                           **
 **            Copyright (C) by CP2K Developers Group (2000 - 2014)           **
 **                                                                           **
 *******************************************************************************

 RADII: ORBITAL BASIS in angstrom            Kind   Label     Radius  OCE Radius
                                                1   O       3.301342    3.301342
                                                2   H       3.280507    3.280507

 RADII: SHELL SETS OF ORBITAL BASIS in angstrom   Kind  Label   Set       Radius
                                                     1  O         1     3.301342
                                                                  2     1.994997
                                                     2  H         1     3.280507
                                                                  2     1.924550

 RADII: PRIMITIVE GAUSSIANS OF ORBITAL BASIS in anKindomLabel   Set       Radius
                                                     1  O         1     0.544133
                                                                        1.011788
                                                                        1.773692
                                                                        3.301342
                                                     1  O         2     1.994997
                                                     2  H         1     0.431962
                                                                        0.980203
                                                                        1.830135
                                                                        3.280507
                                                     2  H         2     1.924550

 RADII: GEMINAL BASIS in angstrom                     Kind   Label       Radius
                                                          1   O         no basis
                                                          2   H         no basis

 RADII: SHELL SETS OF GEMINAL BASIS in angstrom   Kind  Label   Set       Radius
                                                     1   O              no basis
                                                     2   H              no basis

 RADII: PRIMITIVE GEMINALS OF GEMINAL BASIS in angKindm Label   Set       Radius
                                                     1   O              no basis
                                                     2   H              no basis

 RADII: AUXILLIARY BASIS in angstrom         Kind   Label     Radius  OCE Radius
                                                          1   O         no basis
                                                          2   H         no basis

 RADII: SHELL SETS OF AUXILLIARY BASIS in angstromKind  Label   Set       Radius
                                                     1   O              no basis
                                                     2   H              no basis

 RADII: PRIMITIVE GAUSSIANS OF AUXILLIARY BASIS inKindstLabel   Set       Radius
                                                     1   O              no basis
                                                     2   H              no basis

 RADII: LOCAL RI BASIS in angstrom           Kind   Label     Radius  OCE Radius
                                                          1   O         no basis
                                                          2   H         no basis

 RADII: SHELL SETS OF LOCAL RI BASIS in angstrom  Kind  Label   Set       Radius
                                                     1   O              no basis
                                                     2   H              no basis

 RADII: PRIMITIVE GAUSSIANS OF LOCAL RI BASIS in aKindroLabel   Set       Radius
                                                     1   O              no basis
                                                     2   H              no basis

 RADII: CORE CHARGE DISTRIBUTIONS in angstrom          Kind   Label       Radius
                                                          1   O         0.906813
                                                          2   H         0.714601

 RADII: LOCAL PART OF GTH/ELP PP in angstrom           Kind   Label       Radius
                                                          1   O         0.533449
                                                          2   H         0.393440

 RADII: NON-LOCAL PART OF GTH PP in angstrom           Kind   Label       Radius
                                                          1   O         0.543564
                                                          2   H         0.000000

 RADII: ONE CENTER PROJECTORS in angstrom              Kind   Label       Radius

 DISTRIBUTION OF THE MOLECULES                    Process    Number of molecules
                                                        0                      3
                                                      Sum                      3

  Process   Kind   Local molecules (global indices)
        0      1         1
               2         2
               3         3

 DISTRIBUTION OF THE PARTICLES                    Process    Number of particles
                                                        0                      3
                                                      Sum                      3

  Process   Kind   Local particles (global indices)
        0      1        1
               2        2     3

 DFT| Spin restricted Kohn-Sham (RKS) calculation                            RKS
 DFT| Multiplicity                                                             1
 DFT| Number of spin states                                                    1
 DFT| Charge                                                                   0
 DFT| Self-interaction correction (SIC)                                       NO
 DFT| Cutoffs: density                                              1.000000E-10
 DFT|          gradient                                             1.000000E-10
 DFT|          tau                                                  1.000000E-10
 DFT|          cutoff_smoothing_range                               0.000000E+00
 DFT| XC density smoothing                                                  NONE
 DFT| XC derivatives                                                          PW
 FUNCTIONAL| ROUTINE=NEW
 FUNCTIONAL| PADE:
 FUNCTIONAL| S. Goedecker, M. Teter and J. Hutter, Phys. Rev. B 54, 1703 (1996)

 QS| Method:                                                                 GPW
 QS| Density plane wave grid type                        NON-SPHERICAL FULLSPACE
 QS| Number of grid levels:                                                    4
 QS| Density cutoff [a.u.]:                                                100.0
 QS| Multi grid cutoff [a.u.]: 1) grid level                               100.0
 QS|                           2) grid level                                33.3
 QS|                           3) grid level                                11.1
 QS|                           4) grid level                                 3.7
 QS| Grid level progression factor:                                          3.0
 QS| Relative density cutoff [a.u.]:                                        15.0
 QS| Consistent realspace mapping and integration
 QS| Interaction thresholds: eps_pgf_orb:                                3.2E-04
 QS|                         eps_filter_matrix:                          0.0E+00
 QS|                         eps_core_charge:                            1.0E-09
 QS|                         eps_rho_gspace:                             1.0E-07
 QS|                         eps_rho_rspace:                             1.0E-07
 QS|                         eps_gvg_rspace:                             3.2E-04
 QS|                         eps_ppl:                                    1.0E-02
 QS|                         eps_ppnl:                                   3.2E-06


 ATOMIC KIND INFORMATION

  1. Atomic kind: O                                     Number of atoms:       1

     Orbital Basis Set                                             DZVP-GTH-PADE

       Number of orbital shell sets:                                           2
       Number of orbital shells:                                               5
       Number of primitive Cartesian functions:                                5
       Number of Cartesian basis functions:                                   14
       Number of spherical basis functions:                                   13
       Norm type:                                                              2

       Normalised Cartesian orbitals:

                        Set   Shell   Orbital            Exponent    Coefficient

                          1       1    2s                8.304404       0.526521
                                                         2.457945      -0.055011
                                                         0.759736      -0.404341
                                                         0.213639      -0.086026

                          1       2    3s                8.304404       0.000000
                                                         2.457945       0.000000
                                                         0.759736       0.000000
                                                         0.213639       0.223960

                          1       3    3px               8.304404      -2.000758
                                                         2.457945      -1.321077
                                                         0.759736      -0.480331
                                                         0.213639      -0.078647
                          1       3    3py               8.304404      -2.000758
                                                         2.457945      -1.321077
                                                         0.759736      -0.480331
                                                         0.213639      -0.078647
                          1       3    3pz               8.304404      -2.000758
                                                         2.457945      -1.321077
                                                         0.759736      -0.480331
                                                         0.213639      -0.078647

                          1       4    4px               8.304404       0.000000
                                                         2.457945       0.000000
                                                         0.759736       0.000000
                                                         0.213639       0.207033
                          1       4    4py               8.304404       0.000000
                                                         2.457945       0.000000
                                                         0.759736       0.000000
                                                         0.213639       0.207033
                          1       4    4pz               8.304404       0.000000
                                                         2.457945       0.000000
                                                         0.759736       0.000000
                                                         0.213639       0.207033

                          2       1    3dx2              0.800000       1.113825
                          2       1    3dxy              0.800000       1.929201
                          2       1    3dxz              0.800000       1.929201
                          2       1    3dy2              0.800000       1.113825
                          2       1    3dyz              0.800000       1.929201
                          2       1    3dz2              0.800000       1.113825

     Potential information for                                       GTH-PADE-q6

       Description:                       Goedecker-Teter-Hutter pseudopotential
                                           Goedecker et al., PRB 54, 1703 (1996)
                                          Hartwigsen et al., PRB 58, 3641 (1998)
                                                      Krack, TCA 114, 145 (2005)

       Gaussian exponent of the core charge distribution:               8.154466
       Electronic configuration (s p d ...):                               2   4

       Parameters of the local part of the GTH pseudopotential:

                          rloc        C1          C2          C3          C4
                        0.247621  -16.580318    2.395701

       Parameters of the non-local part of the GTH pseudopotential:

                   l      r(l)      h(i,j,l)

                   0    0.221786   18.266917
                   1    0.256829

  2. Atomic kind: H                                     Number of atoms:       2

     Orbital Basis Set                                             DZVP-GTH-PADE

       Number of orbital shell sets:                                           2
       Number of orbital shells:                                               3
       Number of primitive Cartesian functions:                                5
       Number of Cartesian basis functions:                                    5
       Number of spherical basis functions:                                    5
       Norm type:                                                              2

       Normalised Cartesian orbitals:

                        Set   Shell   Orbital            Exponent    Coefficient

                          1       1    1s                8.374435      -0.083834
                                                         1.805868      -0.155208
                                                         0.485253      -0.104875
                                                         0.165824      -0.128813

                          1       2    2s                8.374435       0.000000
                                                         1.805868       0.000000
                                                         0.485253       0.000000
                                                         0.165824       0.185202

                          2       1    2px               0.700000       0.912668
                          2       1    2py               0.700000       0.912668
                          2       1    2pz               0.700000       0.912668

     Potential information for                                       GTH-PADE-q1

       Description:                       Goedecker-Teter-Hutter pseudopotential
                                           Goedecker et al., PRB 54, 1703 (1996)
                                          Hartwigsen et al., PRB 58, 3641 (1998)
                                                      Krack, TCA 114, 145 (2005)

       Gaussian exponent of the core charge distribution:              12.500000
       Electronic configuration (s p d ...):                                   1

       Parameters of the local part of the GTH pseudopotential:

                          rloc        C1          C2          C3          C4
                        0.200000   -4.180237    0.725075


 MOLECULE KIND INFORMATION


 All atoms are their own molecule, skipping detailed information


 TOTAL NUMBERS AND MAXIMUM NUMBERS

  Total number of            - Atomic kinds:                                   2
                             - Atoms:                                          3
                             - Shell sets:                                     6
                             - Shells:                                        11
                             - Primitive Cartesian functions:                 15
                             - Cartesian basis functions:                     24
                             - Spherical basis functions:                     23

  Maximum angular momentum of- Orbital basis functions:                        2
                             - Local part of the GTH pseudopotential:          2
                             - Non-local part of the GTH pseudopotential:      0


 MODULE QUICKSTEP:  ATOMIC COORDINATES IN angstrom

  Atom  Kind  Element       X           Y           Z          Z(eff)       Mass

       1     1 O    8   12.235322    1.376642   10.869880      6.00      15.9994
       2     2 H    1   12.415139    2.233125   11.257611      1.00       1.0079
       3     2 H    1   11.922476    1.573799    9.986994      1.00       1.0079



 REQUESTED STRUCTURE DATA


 SCF PARAMETERS         Density guess:                                    ATOMIC
                        --------------------------------------------------------
                        max_scf:                                             200
                        max_scf_history:                                       0
                        max_diis:                                              4
                        --------------------------------------------------------
                        eps_scf:                                        1.00E-05
                        eps_scf_history:                                0.00E+00
                        eps_diis:                                       1.00E-01
                        eps_eigval:                                     1.00E-05
                        --------------------------------------------------------
                        level_shift [a.u.]:                                 0.00
                        --------------------------------------------------------
                        Mixing method:                              PULAY_MIXING
                                                charge density mixing in g-space
                        --------------------------------------------------------
                        No outer SCF

 PW_GRID| Information for grid number                                          1
 PW_GRID| Cutoff [a.u.]                                                    100.0
 PW_GRID| spherical cutoff:                                                   NO
 PW_GRID|   Bounds   1            -54      53                Points:         108
 PW_GRID|   Bounds   2            -54      53                Points:         108
 PW_GRID|   Bounds   3            -54      53                Points:         108
 PW_GRID| Volume element (a.u.^3)  0.1025E-01     Volume (a.u.^3)     12909.5421
 PW_GRID| Grid span                                                    FULLSPACE

 PW_GRID| Information for grid number                                          2
 PW_GRID| Cutoff [a.u.]                                                     33.3
 PW_GRID| spherical cutoff:                                                   NO
 PW_GRID|   Bounds   1            -32      31                Points:          64
 PW_GRID|   Bounds   2            -32      31                Points:          64
 PW_GRID|   Bounds   3            -32      31                Points:          64
 PW_GRID| Volume element (a.u.^3)  0.4925E-01     Volume (a.u.^3)     12909.5421
 PW_GRID| Grid span                                                    FULLSPACE

 PW_GRID| Information for grid number                                          3
 PW_GRID| Cutoff [a.u.]                                                     11.1
 PW_GRID| spherical cutoff:                                                   NO
 PW_GRID|   Bounds   1            -18      17                Points:          36
 PW_GRID|   Bounds   2            -18      17                Points:          36
 PW_GRID|   Bounds   3            -18      17                Points:          36
 PW_GRID| Volume element (a.u.^3)  0.2767         Volume (a.u.^3)     12909.5421
 PW_GRID| Grid span                                                    FULLSPACE

 PW_GRID| Information for grid number                                          4
 PW_GRID| Cutoff [a.u.]                                                      3.7
 PW_GRID| spherical cutoff:                                                   NO
 PW_GRID|   Bounds   1            -12      11                Points:          24
 PW_GRID|   Bounds   2            -12      11                Points:          24
 PW_GRID|   Bounds   3            -12      11                Points:          24
 PW_GRID| Volume element (a.u.^3)  0.9338         Volume (a.u.^3)     12909.5421
 PW_GRID| Grid span                                                    FULLSPACE

 POISSON| Solver                                                        PERIODIC
 POISSON| Periodicity                                                        XYZ

 RS_GRID| Information for grid number                                          1
 RS_GRID|   Bounds   1            -54      53                Points:         108
 RS_GRID|   Bounds   2            -54      53                Points:         108
 RS_GRID|   Bounds   3            -54      53                Points:         108

 RS_GRID| Information for grid number                                          2
 RS_GRID|   Bounds   1            -32      31                Points:          64
 RS_GRID|   Bounds   2            -32      31                Points:          64
 RS_GRID|   Bounds   3            -32      31                Points:          64

 RS_GRID| Information for grid number                                          3
 RS_GRID|   Bounds   1            -18      17                Points:          36
 RS_GRID|   Bounds   2            -18      17                Points:          36
 RS_GRID|   Bounds   3            -18      17                Points:          36

 RS_GRID| Information for grid number                                          4
 RS_GRID|   Bounds   1            -12      11                Points:          24
 RS_GRID|   Bounds   2            -12      11                Points:          24
 RS_GRID|   Bounds   3            -12      11                Points:          24

 DISTRIBUTION OF THE PARTICLES (ROWS)
              Process row      Number of particles         Number of matrix rows
                        0                        3                            -1
                      Sum                        3                            -1

 DISTRIBUTION OF THE PARTICLES (COLUMNS)
              Process col      Number of particles      Number of matrix columns
                        0                        3                            -1
                      Sum                        3                            -1

 <distribution_2d> {      id_nr=         1      ref_count=         1,
    n_row_distribution=              3,
      row_distribution= (     0,     0,     0,),
    n_col_distribution=              3,
      col_distribution= (     0,     0,     0,),
    n_local_rows= (     1,     2,),
      local_rows=(
(      1 )
(      2,     3 )
 ),
    n_local_cols= (     1,     2,),
      local_cols=(
(      1 )
(      2,     3 )
 ),
    blacs_env=  group=         0, ref_count=         5,
  mepos=(       0,       0),
  num_pe=(       1,       1),
  blacs2mpi=      0
  para_env=<cp_para_env id=     0>,
  my_pid=         0, n_pid=         1 }
 }

 *******************************************************************************
 ***                     STARTING GEOMETRY OPTIMIZATION                      ***
 ***                           CONJUGATE GRADIENTS                           ***
 *******************************************************************************

 REQUESTED STRUCTURE DATA

 DISTRIBUTION OF THE NEIGHBOR LISTS
              Total number of particle pairs:                                  6
              Total number of matrix elements:                               374
              Average number of particle pairs:                                6
              Maximum number of particle pairs:                                6
              Average number of matrix element:                              374
              Maximum number of matrix elements:                             374


 DISTRIBUTION OF THE OVERLAP MATRIX
              Number  of non-zero blocks:                                      6
              Percentage non-zero blocks:                                 100.00
              Average number of blocks per CPU:                                6
              Maximum number of blocks per CPU:                                6
              Average number of matrix elements per CPU:                     384
              Maximum number of matrix elements per CPU:                     384

 Initializing the DDAPC Environment

 Number of electrons:                                                          8
 Number of occupied orbitals:                                                  4
 Number of molecular orbitals:                                                 4

 Number of orbital functions:                                                 23
 Number of independent orbital functions:                                     23

 Extrapolation method: initial_guess

 Atomic guess: The first density matrix is obtained in terms of atomic orbitals
               and electronic configurations assigned to each atomic kind

 Guess for atomic kind: O

 Electronic structure
    Total number of core electrons                                          2.00
    Total number of valence electrons                                       6.00
    Total number of electrons                                               8.00
    Multiplicity                                                   not specified
    S   [  2.00] 2.00
    P      4.00


 *******************************************************************************
                  Iteration          Convergence                     Energy [au]
 *******************************************************************************
                          1         1.68085                     -14.857481728656
                          2         2.15642                     -14.936142370053
                          3        0.890654E-01                 -15.701381433081
                          4        0.300038E-02                 -15.702655347039
                          5        0.124050E-02                 -15.702656532555
                          6        0.771851E-03                 -15.702656682204
                          7        0.254544E-04                 -15.702656776553
                          8        0.154783E-06                 -15.702656776662

 Energy components [Hartree]           Total Energy ::          -15.702656776662
                                        Band Energy ::           -2.982159100248
                                     Kinetic Energy ::           11.942300538966
                                   Potential Energy ::          -27.644957315628
                                      Virial (-V/T) ::            2.314877039430
                                        Core Energy ::          -26.240316547129
                                          XC Energy ::           -3.168822356033
                                     Coulomb Energy ::           13.706482126500
                       Total Pseudopotential Energy ::          -38.217120617695
                       Local Pseudopotential Energy ::          -39.522374145046
                    Nonlocal Pseudopotential Energy ::            1.305253527351
                                        Confinement ::            0.345035316001

 Orbital energies  State     L     Occupation   Energy[a.u.]          Energy[eV]

                       1     0          2.000      -0.854038          -23.239548

                       1     1          4.000      -0.318521           -8.667395


 Guess for atomic kind: H

 Electronic structure
    Total number of core electrons                                          0.00
    Total number of valence electrons                                       1.00
    Total number of electrons                                               1.00
    Multiplicity                                                   not specified
    S      1.00


 *******************************************************************************
                  Iteration          Convergence                     Energy [au]
 *******************************************************************************
                          1        0.316011E-02                  -0.422390558413
                          2        0.333152E-03                  -0.422399635530
                          3        0.114302E-06                  -0.422399737491

 Energy components [Hartree]           Total Energy ::           -0.422399737491
                                        Band Energy ::           -0.193019372217
                                     Kinetic Energy ::            0.475009752129
                                   Potential Energy ::           -0.897409489620
                                      Virial (-V/T) ::            1.889244348347
                                        Core Energy ::           -0.478923189740
                                          XC Energy ::           -0.248206713182
                                     Coulomb Energy ::            0.304730165431
                       Total Pseudopotential Energy ::           -0.971460622099
                       Local Pseudopotential Energy ::           -0.971460622099
                    Nonlocal Pseudopotential Energy ::            0.000000000000
                                        Confinement ::            0.175276802303

 Orbital energies  State     L     Occupation   Energy[a.u.]          Energy[eV]

                       1     0          1.000      -0.193019           -5.252324

 Re-scaling the density matrix to get the right number of electrons
                  # Electrons              Trace(P)               Scaling factor
                            8                 8.000                        1.000


 SCF WAVEFUNCTION OPTIMIZATION

  Step     Update method      Time    Convergence         Total energy    Change
  ------------------------------------------------------------------------------

  Trace(PS):                                    8.0000000000
  Electronic density on regular grids:         -8.0000012802       -0.0000012802
  Core density on regular grids:                7.9999999260       -0.0000000740
  Total charge density on r-space grids:       -0.0000013541
  Total charge density g-space grids:          -0.0000013541


  Core Hamiltonian energy:                                         12.3506752813
  Hartree energy:                                                  18.4153398295
  Exchange-correlation energy:                                     -3.9422530834
  Coulomb (electron-electron) energy:                              16.4480097467
        Maximum deviation from MO S-orthonormality                    0.1000E+01
        Minimum/Maximum MO magnitude              0.0000E+00          0.0000E+00
     1 NoMix/Diag. 0.50E+00    0.4     1.14126074       -17.0091284306 -1.70E+01

  Trace(PS):                                    8.0000000000
  Electronic density on regular grids:         -8.0000016413       -0.0000016413
  Core density on regular grids:                7.9999999260       -0.0000000740
  Total charge density on r-space grids:       -0.0000017153
  Total charge density g-space grids:          -0.0000017153


  Core Hamiltonian energy:                                         14.4221595465
  Hartree energy:                                                  17.6066113156
  Exchange-correlation energy:                                     -4.1278333163
  Coulomb (electron-electron) energy:                              17.4946273649
        Maximum deviation from MO S-orthonormality                    0.1332E-14
        Minimum/Maximum MO magnitude              0.1012E+01          0.1625E+01
     2 Pulay/Diag. 0.50E+00    0.6     0.37692421       -15.9319529123  1.08E+00

  Trace(PS):                                    8.0000000000
  Electronic density on regular grids:         -8.0000016733       -0.0000016733
  Core density on regular grids:                7.9999999260       -0.0000000740
  Total charge density on r-space grids:       -0.0000017473
  Total charge density g-space grids:          -0.0000017473


  Core Hamiltonian energy:                                         12.6312492162
  Hartree energy:                                                  17.9060731497
  Exchange-correlation energy:                                     -4.1360041770
  Coulomb (electron-electron) energy:                              17.5498370666
        Maximum deviation from MO S-orthonormality                    0.1443E-14
        Minimum/Maximum MO magnitude              0.8331E+00          0.1618E+01
     3 Pulay/Diag. 0.50E+00    0.5     0.08104039       -17.4315722690 -1.50E+00

  Trace(PS):                                    8.0000000000
  Electronic density on regular grids:         -8.0000016740       -0.0000016740
  Core density on regular grids:                7.9999999260       -0.0000000740
  Total charge density on r-space grids:       -0.0000017479
  Total charge density g-space grids:          -0.0000017479


  Core Hamiltonian energy:                                         12.9100209779
  Hartree energy:                                                  17.9123059955
  Exchange-correlation energy:                                     -4.1452184298
  Coulomb (electron-electron) energy:                              17.6231578406
        Maximum deviation from MO S-orthonormality                    0.1998E-14
        Minimum/Maximum MO magnitude              0.8593E+00          0.1598E+01
     4 Pulay/Diag. 0.50E+00    0.5     0.01022197       -17.1557819144  2.76E-01

  Trace(PS):                                    8.0000000000
  Electronic density on regular grids:         -8.0000016706       -0.0000016706
  Core density on regular grids:                7.9999999260       -0.0000000740
  Total charge density on r-space grids:       -0.0000017445
  Total charge density g-space grids:          -0.0000017445


  Core Hamiltonian energy:                                         12.8597730968
  Hartree energy:                                                  17.9259697675
  Exchange-correlation energy:                                     -4.1445272410
  Coulomb (electron-electron) energy:                              17.6302261037
        Maximum deviation from MO S-orthonormality                    0.1332E-14
        Minimum/Maximum MO magnitude              0.8547E+00          0.1597E+01
     5 Pulay/Diag. 0.50E+00    0.5     0.00392885       -17.1916748347 -3.59E-02

  Trace(PS):                                    8.0000000000
  Electronic density on regular grids:         -8.0000016693       -0.0000016693
  Core density on regular grids:                7.9999999260       -0.0000000740
  Total charge density on r-space grids:       -0.0000017433
  Total charge density g-space grids:          -0.0000017433


  Core Hamiltonian energy:                                         12.8774914354
  Hartree energy:                                                  17.9305473931
  Exchange-correlation energy:                                     -4.1444537944
  Coulomb (electron-electron) energy:                              17.6379190969
        Maximum deviation from MO S-orthonormality                    0.4459E-15
        Minimum/Maximum MO magnitude              0.8564E+00          0.1597E+01
     6 Pulay/Diag. 0.50E+00    0.6     0.00130980       -17.1693054239  2.24E-02

  Trace(PS):                                    8.0000000000
  Electronic density on regular grids:         -8.0000016693       -0.0000016693
  Core density on regular grids:                7.9999999260       -0.0000000740
  Total charge density on r-space grids:       -0.0000017432
  Total charge density g-space grids:          -0.0000017432


  Core Hamiltonian energy:                                         12.8812795139
  Hartree energy:                                                  17.9310748918
  Exchange-correlation energy:                                     -4.1443900639
  Coulomb (electron-electron) energy:                              17.6423566869
        Maximum deviation from MO S-orthonormality                    0.1554E-14
        Minimum/Maximum MO magnitude              0.8569E+00          0.1597E+01
     7 Pulay/Diag. 0.50E+00    0.6     0.00059051       -17.1649261163  4.38E-03

  Trace(PS):                                    8.0000000000
  Electronic density on regular grids:         -8.0000016693       -0.0000016693
  Core density on regular grids:                7.9999999260       -0.0000000740
  Total charge density on r-space grids:       -0.0000017432
  Total charge density g-space grids:          -0.0000017432


  Core Hamiltonian energy:                                         12.8802943190
  Hartree energy:                                                  17.9322685702
  Exchange-correlation energy:                                     -4.1442126339
  Coulomb (electron-electron) energy:                              17.6462649762
        Maximum deviation from MO S-orthonormality                    0.2109E-14
        Minimum/Maximum MO magnitude              0.8568E+00          0.1597E+01
     8 Pulay/Diag. 0.50E+00    0.6     0.00056162       -17.1645402028  3.86E-04

  Trace(PS):                                    8.0000000000
  Electronic density on regular grids:         -8.0000016694       -0.0000016694
  Core density on regular grids:                7.9999999260       -0.0000000740
  Total charge density on r-space grids:       -0.0000017433
  Total charge density g-space grids:          -0.0000017433


  Core Hamiltonian energy:                                         12.8810474282
  Hartree energy:                                                  17.9322032846
  Exchange-correlation energy:                                     -4.1441271714
  Coulomb (electron-electron) energy:                              17.6475086102
        Maximum deviation from MO S-orthonormality                    0.1665E-14
        Minimum/Maximum MO magnitude              0.8569E+00          0.1596E+01
     9 Pulay/Diag. 0.50E+00    0.6     0.00020889       -17.1637669166  7.73E-04

  Trace(PS):                                    8.0000000000
  Electronic density on regular grids:         -8.0000016693       -0.0000016693
  Core density on regular grids:                7.9999999260       -0.0000000740
  Total charge density on r-space grids:       -0.0000017433
  Total charge density g-space grids:          -0.0000017433


  Core Hamiltonian energy:                                         12.8806883968
  Hartree energy:                                                  17.9324248766
  Exchange-correlation energy:                                     -4.1440706979
  Coulomb (electron-electron) energy:                              17.6481528211
        Maximum deviation from MO S-orthonormality                    0.1554E-14
        Minimum/Maximum MO magnitude              0.8569E+00          0.1596E+01
    10 Pulay/Diag. 0.50E+00    0.6     0.00008745       -17.1638478825 -8.10E-05

  Trace(PS):                                    8.0000000000
  Electronic density on regular grids:         -8.0000016694       -0.0000016694
  Core density on regular grids:                7.9999999260       -0.0000000740
  Total charge density on r-space grids:       -0.0000017433
  Total charge density g-space grids:          -0.0000017433


  Core Hamiltonian energy:                                         12.8809016504
  Hartree energy:                                                  17.9323804338
  Exchange-correlation energy:                                     -4.1440579547
  Coulomb (electron-electron) energy:                              17.6484078421
        Maximum deviation from MO S-orthonormality                    0.6661E-15
        Minimum/Maximum MO magnitude              0.8570E+00          0.1596E+01
    11 Pulay/Diag. 0.50E+00    0.6     0.00003405       -17.1636663285  1.82E-04

  Trace(PS):                                    8.0000000000
  Electronic density on regular grids:         -8.0000016694       -0.0000016694
  Core density on regular grids:                7.9999999260       -0.0000000740
  Total charge density on r-space grids:       -0.0000017433
  Total charge density g-space grids:          -0.0000017433


  Core Hamiltonian energy:                                         12.8807843422
  Hartree energy:                                                  17.9324276361
  Exchange-correlation energy:                                     -4.1440484980
  Coulomb (electron-electron) energy:                              17.6485321661
        Maximum deviation from MO S-orthonormality                    0.1332E-14
        Minimum/Maximum MO magnitude              0.8569E+00          0.1596E+01
    12 Pulay/Diag. 0.50E+00    0.6     0.00001742       -17.1637269776 -6.06E-05

  Trace(PS):                                    8.0000000000
  Electronic density on regular grids:         -8.0000016694       -0.0000016694
  Core density on regular grids:                7.9999999260       -0.0000000740
  Total charge density on r-space grids:       -0.0000017433
  Total charge density g-space grids:          -0.0000017433


  Core Hamiltonian energy:                                         12.8808290180
  Hartree energy:                                                  17.9324360677
  Exchange-correlation energy:                                     -4.1440471029
  Coulomb (electron-electron) energy:                              17.6485686029
        Maximum deviation from MO S-orthonormality                    0.2220E-14
        Minimum/Maximum MO magnitude              0.8570E+00          0.1596E+01
    13 Pulay/Diag. 0.50E+00    0.6     0.00000474       -17.1636724752  5.45E-05

  *** SCF run converged in    13 steps ***


  Electronic density on regular grids:         -8.0000016694       -0.0000016694
  Core density on regular grids:                7.9999999260       -0.0000000740
  Total charge density on r-space grids:       -0.0000017433
  Total charge density g-space grids:          -0.0000017433

  Overlap energy of the core charge distribution:               0.00000008790619
  Self energy of the core charge distribution:                -43.83289054591484
  Core Hamiltonian energy:                                     12.88082901797401
  Hartree energy:                                              17.93243606773645
  Exchange-correlation energy:                                 -4.14404710293827
  Coulomb Electron-Electron Interaction Energy
  - Already included in the total Hartree term                 17.64856860294379

  Total energy:                                               -17.16367247523646

 The electron density is written in cube file format to the file:

 H2O-ELECTRON_DENSITY-1_0.cube


 MULLIKEN POPULATION ANALYSIS

 #  Atom  Element  Kind  Atomic population                Net charge
       1     O        1          6.624692                 -0.624692
       2     H        2          0.687615                  0.312385
       3     H        2          0.687693                  0.312307
 # Total charge                  8.000000                 -0.000000


 !-----------------------------------------------------------------------------!
                           Hirschfeld Charges

  #Atom  Element  Kind  Ref Charge     Population                     Net charge
      1       O      1       6.000          6.550                         -0.550
      2       H      2       1.000          0.725                          0.275
      3       H      2       1.000          0.725                          0.275

  Total Charge                                                             0.000
 !-----------------------------------------------------------------------------!
  Electronic kinetic energy:                                  13.74763221804082


 LOWDIN POPULATION ANALYSIS

 #  Atom  Element  Kind  Atomic population                Net charge
       1     O        1          6.465603                 -0.465603
       2     H        2          0.767185                  0.232815
       3     H        2          0.767213                  0.232787
 # Total charge                  8.000000                 -0.000000

  DDAP FULL DENSITY charges:
  Atom     |    Charge

     1  O    -0.708700
     2  H     0.354360
     3  H     0.354338
  Total      -0.000002


 ELECTRIC/MAGNETIC MOMENTS
  Reference Point [Bohr]           0.00000000    0.00000000    0.00000000
  Charges
    Electronic=      8.00000000    Core=    -8.00000000    Total=      0.00000000
  Dipole vectors are based on the periodic (Berry phase) operator.
  They are defined modulo integer multiples of the cell matrix [Debye].
  [X] [   59.62601719     0.00000000     0.00000000 ] [i]
  [Y]=[    0.00000000    59.62601719     0.00000000 ]*[j]
  [Z] [    0.00000000     0.00000000    59.62601719 ] [k]
  Dipole moment [Debye]
    X=   -0.24334376 Y=    1.93627869 Z=   -0.91717773     Total=      2.15629459

  Eigenvalues of the occupied subspace spin            1
 ---------------------------------------------
      -0.91342913      -0.47446118      -0.32435944      -0.25090680
 Fermi Energy [eV] :   -6.827521

  Lowest eigenvalues of the unoccupied subspace spin            1
 ---------------------------------------------


  Trace(PS):                                    8.0000000000
  Electronic density on regular grids:         -8.0000016694       -0.0000016694
  Core density on regular grids:                7.9999999260       -0.0000000740
  Total charge density on r-space grids:       -0.0000017433
  Total charge density g-space grids:          -0.0000017433


  Core Hamiltonian energy:                                         12.8808364114
  Hartree energy:                                                  17.9324352807
  Exchange-correlation energy:                                     -4.1440483166
  Coulomb (electron-electron) energy:                              17.6485942485


 FORCES [a.u.]

  Atom    Kind        Component        X           Y           Z

     1       1          overlap     -0.034968    0.277238   -0.130278
     1       1     overlap_admm      0.000000    0.000000    0.000000
     1       1          kinetic     -0.091591    0.726228   -0.341297
     1       1          gth_ppl      0.018040   -0.142963    0.067178
     1       1         gth_nlcc      0.000000    0.000000    0.000000
     1       1         gth_ppnl     -0.017911    0.141965   -0.066682
     1       1     core_overlap     -0.000000    0.000001   -0.000000
     1       1         rho_core     -0.181419    1.432840   -0.672387
     1       1         rho_elec      0.305100   -2.415992    1.135784
     1       1         rho_lri_el    0.000000    0.000000    0.000000
     1       1         ch_pulay      0.000000    0.000000    0.000000
     1       1       dispersion      0.000000    0.000000    0.000000
     1       1            other      0.000000    0.000000    0.000000
     1       1          fock_4c      0.000000    0.000000    0.000000
     1       1           hfx_ri      0.000000    0.000000    0.000000
     1       1        ehrenfest      0.000000    0.000000    0.000000
     1       1           efield      0.000000    0.000000    0.000000
     1       1              eev      0.000000    0.000000    0.000000
     1       1      mp2_non_sep      0.000000    0.000000    0.000000
     1       1          mp2_sep      0.000000    0.000000    0.000000
     1       1            total     -0.002750    0.019318   -0.007681

     2       2          overlap     -0.045582   -0.223060   -0.097567
     2       2     overlap_admm      0.000000    0.000000    0.000000
     2       2          kinetic     -0.133677   -0.603450   -0.292479
     2       2          gth_ppl      0.025063    0.117109    0.054332
     2       2         gth_nlcc      0.000000    0.000000    0.000000
     2       2         gth_ppnl     -0.026203   -0.118049   -0.057336
     2       2     core_overlap     -0.000000   -0.000001   -0.000000
     2       2         rho_core     -0.022255   -0.095034   -0.048456
     2       2         rho_elec      0.198715    0.905852    0.433629
     2       2         rho_lri_el    0.000000    0.000000    0.000000
     2       2         ch_pulay      0.000000    0.000000    0.000000
     2       2       dispersion      0.000000    0.000000    0.000000
     2       2            other      0.000000    0.000000    0.000000
     2       2          fock_4c      0.000000    0.000000    0.000000
     2       2           hfx_ri      0.000000    0.000000    0.000000
     2       2        ehrenfest      0.000000    0.000000    0.000000
     2       2           efield      0.000000    0.000000    0.000000
     2       2              eev      0.000000    0.000000    0.000000
     2       2      mp2_non_sep      0.000000    0.000000    0.000000
     2       2          mp2_sep      0.000000    0.000000    0.000000
     2       2            total     -0.003941   -0.016633   -0.007877

     3       2          overlap      0.080549   -0.054178    0.227845
     3       2     overlap_admm      0.000000    0.000000    0.000000
     3       2          kinetic      0.225269   -0.122778    0.633776
     3       2          gth_ppl     -0.043102    0.025854   -0.121510
     3       2         gth_nlcc      0.000000    0.000000    0.000000
     3       2         gth_ppnl      0.044115   -0.023916    0.124018
     3       2     core_overlap      0.000000   -0.000000    0.000001
     3       2         rho_core      0.037763   -0.014856    0.102183
     3       2         rho_elec     -0.336791    0.188787   -0.948034
     3       2         rho_lri_el    0.000000    0.000000    0.000000
     3       2         ch_pulay      0.000000    0.000000    0.000000
     3       2       dispersion      0.000000    0.000000    0.000000
     3       2            other      0.000000    0.000000    0.000000
     3       2          fock_4c      0.000000    0.000000    0.000000
     3       2           hfx_ri      0.000000    0.000000    0.000000
     3       2        ehrenfest      0.000000    0.000000    0.000000
     3       2           efield      0.000000    0.000000    0.000000
     3       2              eev      0.000000    0.000000    0.000000
     3       2      mp2_non_sep      0.000000    0.000000    0.000000
     3       2          mp2_sep      0.000000    0.000000    0.000000
     3       2            total      0.007803   -0.001087    0.018279

  Sum of total                       0.001112    0.001598    0.002720

 ENERGY| Total FORCE_EVAL ( QS ) energy (a.u.):              -17.163667082526786


 ATOMIC FORCES in [a.u.]

 # Atom   Kind   Element          X              Y              Z
      1      1      O           0.00000000     0.00000000     0.00000000
      2      2      H           0.00394075     0.01663323     0.00787723
      3      2      H          -0.00780279     0.00108671    -0.01827857
 SUM OF ATOMIC FORCES          -0.00386204     0.01771995    -0.01040134     0.02090693


 *************************************************************************
 *** WARNING in force_env_calc_energy_force (MODULE force_env_methods) ***
 *************************************************************************

 *** To print the stress tensor switch on the virial evaluation with the ***
 *** keyword: STRESS_TENSOR                                              ***

 --------  Informations at step =     0 ------------
  Optimization Method        =                   SD
  Total Energy               =       -17.1636670825
  Used time                  =                9.721
 ---------------------------------------------------

 --------------------------
 OPTIMIZATION STEP:      1
 --------------------------

 REQUESTED STRUCTURE DATA

 DISTRIBUTION OF THE NEIGHBOR LISTS
              Total number of particle pairs:                                  6
              Total number of matrix elements:                               374
              Average number of particle pairs:                                6
              Maximum number of particle pairs:                                6
              Average number of matrix element:                              374
              Maximum number of matrix elements:                             374


 DISTRIBUTION OF THE OVERLAP MATRIX
              Number  of non-zero blocks:                                      6
              Percentage non-zero blocks:                                 100.00
              Average number of blocks per CPU:                                6
              Maximum number of blocks per CPU:                                6
              Average number of matrix elements per CPU:                     384
              Maximum number of matrix elements per CPU:                     384

 Initializing the DDAPC Environment

 Number of electrons:                                                          8
 Number of occupied orbitals:                                                  4
 Number of molecular orbitals:                                                 4

 Number of orbital functions:                                                 23
 Number of independent orbital functions:                                     23

 Parameters for the always stable predictor-corrector (ASPC) method:

  ASPC order: 0

  B(1) =   1.000000

 Extrapolation method: ASPC


 SCF WAVEFUNCTION OPTIMIZATION

  Step     Update method      Time    Convergence         Total energy    Change
  ------------------------------------------------------------------------------

  Trace(PS):                                    8.0000000000
  Electronic density on regular grids:         -8.0000016694       -0.0000016694
  Core density on regular grids:                7.9999999260       -0.0000000740
  Total charge density on r-space grids:       -0.0000017433
  Total charge density g-space grids:          -0.0000017433


  Core Hamiltonian energy:                                         12.8808364114
  Hartree energy:                                                  17.9324352807
  Exchange-correlation energy:                                     -4.1440483166
  Coulomb (electron-electron) energy:                              17.6485942485
        Maximum deviation from MO S-orthonormality                    0.4441E-15
        Minimum/Maximum MO magnitude              0.8570E+00          0.1596E+01
     1 Pulay/Diag. 0.50E+00    0.3     0.00000319       -17.1636670825 -1.72E+01

  *** SCF run converged in     1 steps ***


  Electronic density on regular grids:         -8.0000016694       -0.0000016694
  Core density on regular grids:                7.9999999260       -0.0000000740
  Total charge density on r-space grids:       -0.0000017433
  Total charge density g-space grids:          -0.0000017433

  Overlap energy of the core charge distribution:               0.00000008790619
  Self energy of the core charge distribution:                -43.83289054591484
  Core Hamiltonian energy:                                     12.88083641142988
  Hartree energy:                                              17.93243528069200
  Exchange-correlation energy:                                 -4.14404831664001
  Coulomb Electron-Electron Interaction Energy
  - Already included in the total Hartree term                 17.64859424847884

  Total energy:                                               -17.16366708252678

 The electron density is written in cube file format to the file:

 H2O-ELECTRON_DENSITY-1_1.cube


 MULLIKEN POPULATION ANALYSIS

 #  Atom  Element  Kind  Atomic population                Net charge
       1     O        1          6.624686                 -0.624686
       2     H        2          0.687618                  0.312382
       3     H        2          0.687696                  0.312304
 # Total charge                  8.000000                 -0.000000


 !-----------------------------------------------------------------------------!
                           Hirschfeld Charges

  #Atom  Element  Kind  Ref Charge     Population                     Net charge
      1       O      1       6.000          6.550                         -0.550
      2       H      2       1.000          0.725                          0.275
      3       H      2       1.000          0.725                          0.275

  Total Charge                                                             0.000
 !-----------------------------------------------------------------------------!
  Electronic kinetic energy:                                  13.74761753857454


 LOWDIN POPULATION ANALYSIS

 #  Atom  Element  Kind  Atomic population                Net charge
       1     O        1          6.465600                 -0.465600
       2     H        2          0.767186                  0.232814
       3     H        2          0.767214                  0.232786
 # Total charge                  8.000000                 -0.000000

  DDAP FULL DENSITY charges:
  Atom     |    Charge

     1  O    -0.708691
     2  H     0.354356
     3  H     0.354333
  Total      -0.000002


 ELECTRIC/MAGNETIC MOMENTS
  Reference Point [Bohr]           0.00000000    0.00000000    0.00000000
  Charges
    Electronic=      8.00000000    Core=    -8.00000000    Total=      0.00000000
  Dipole vectors are based on the periodic (Berry phase) operator.
  They are defined modulo integer multiples of the cell matrix [Debye].
  [X] [   59.62601719     0.00000000     0.00000000 ] [i]
  [Y]=[    0.00000000    59.62601719     0.00000000 ]*[j]
  [Z] [    0.00000000     0.00000000    59.62601719 ] [k]
  Dipole moment [Debye]
    X=   -0.24334097 Y=    1.93625652 Z=   -0.91716744     Total=      2.15626998

  Eigenvalues of the occupied subspace spin            1
 ---------------------------------------------
      -0.91342631      -0.47445836      -0.32435579      -0.25090352
 Fermi Energy [eV] :   -6.827432

  Lowest eigenvalues of the unoccupied subspace spin            1
 ---------------------------------------------


 ENERGY| Total FORCE_EVAL ( QS ) energy (a.u.):              -17.163667082526779



 *************************************************************************
 *** WARNING in force_env_calc_energy_force (MODULE force_env_methods) ***
 *************************************************************************

 *** To print the stress tensor switch on the virial evaluation with the ***
 *** keyword: STRESS_TENSOR                                              ***

 REQUESTED STRUCTURE DATA

 DISTRIBUTION OF THE NEIGHBOR LISTS
              Total number of particle pairs:                                  6
              Total number of matrix elements:                               374
              Average number of particle pairs:                                6
              Maximum number of particle pairs:                                6
              Average number of matrix element:                              374
              Maximum number of matrix elements:                             374


 DISTRIBUTION OF THE OVERLAP MATRIX
              Number  of non-zero blocks:                                      6
              Percentage non-zero blocks:                                 100.00
              Average number of blocks per CPU:                                6
              Maximum number of blocks per CPU:                                6
              Average number of matrix elements per CPU:                     384
              Maximum number of matrix elements per CPU:                     384

 Initializing the DDAPC Environment

 Number of electrons:                                                          8
 Number of occupied orbitals:                                                  4
 Number of molecular orbitals:                                                 4

 Number of orbital functions:                                                 23
 Number of independent orbital functions:                                     23

 Parameters for the always stable predictor-corrector (ASPC) method:

  ASPC order: 0

  B(1) =   2.000000
  B(2) =  -1.000000

 Extrapolation method: ASPC


 SCF WAVEFUNCTION OPTIMIZATION

  Step     Update method      Time    Convergence         Total energy    Change
  ------------------------------------------------------------------------------

  Trace(PS):                                    8.0000000000
  Electronic density on regular grids:         -8.0000016374       -0.0000016374
  Core density on regular grids:                7.9999997971       -0.0000002029
  Total charge density on r-space grids:       -0.0000018403
  Total charge density g-space grids:          -0.0000018403


  Core Hamiltonian energy:                                         12.8282202213
  Hartree energy:                                                  17.9599248853
  Exchange-correlation energy:                                     -4.1148956808
  Coulomb (electron-electron) energy:                              17.4486858463
        Maximum deviation from MO S-orthonormality                    0.6661E-15
        Minimum/Maximum MO magnitude              0.8610E+00          0.1606E+01
     1 Pulay/Diag. 0.50E+00    0.3     0.09314893       -17.1596411102 -1.72E+01

  Trace(PS):                                    8.0000000000
  Electronic density on regular grids:         -8.0000016240       -0.0000016240
  Core density on regular grids:                7.9999997971       -0.0000002029
  Total charge density on r-space grids:       -0.0000018269
  Total charge density g-space grids:          -0.0000018269


  Core Hamiltonian energy:                                         12.5051837406
  Hartree energy:                                                  18.0824375845
  Exchange-correlation energy:                                     -4.0912242853
  Coulomb (electron-electron) energy:                              17.3179466441
        Maximum deviation from MO S-orthonormality                    0.2220E-14
        Minimum/Maximum MO magnitude              0.8431E+00          0.1507E+01
     2 Pulay/Diag. 0.50E+00    0.6     0.05242231       -17.3364934962 -1.77E-01

  Trace(PS):                                    8.0000000000
  Electronic density on regular grids:         -8.0000016490       -0.0000016490
  Core density on regular grids:                7.9999997971       -0.0000002029
  Total charge density on r-space grids:       -0.0000018519
  Total charge density g-space grids:          -0.0000018519


  Core Hamiltonian energy:                                         12.7537750721
  Hartree energy:                                                  18.0647144508
  Exchange-correlation energy:                                     -4.0927055638
  Coulomb (electron-electron) energy:                              17.3306325021
        Maximum deviation from MO S-orthonormality                    0.1554E-14
        Minimum/Maximum MO magnitude              0.8654E+00          0.1514E+01
     3 Pulay/Diag. 0.50E+00    0.6     0.01721066       -17.1071065770  2.29E-01

  Trace(PS):                                    8.0000000000
  Electronic density on regular grids:         -8.0000016487       -0.0000016487
  Core density on regular grids:                7.9999997971       -0.0000002029
  Total charge density on r-space grids:       -0.0000018516
  Total charge density g-space grids:          -0.0000018516


  Core Hamiltonian energy:                                         12.6958425307
  Hartree energy:                                                  18.0652926045
  Exchange-correlation energy:                                     -4.0921474598
  Coulomb (electron-electron) energy:                              17.3267940361
        Maximum deviation from MO S-orthonormality                    0.8882E-15
        Minimum/Maximum MO magnitude              0.8602E+00          0.1519E+01
     4 Pulay/Diag. 0.50E+00    0.5     0.00188574       -17.1639028607 -5.68E-02

  Trace(PS):                                    8.0000000000
  Electronic density on regular grids:         -8.0000016488       -0.0000016488
  Core density on regular grids:                7.9999997971       -0.0000002029
  Total charge density on r-space grids:       -0.0000018517
  Total charge density g-space grids:          -0.0000018517


  Core Hamiltonian energy:                                         12.7013698981
  Hartree energy:                                                  18.0644396089
  Exchange-correlation energy:                                     -4.0920991749
  Coulomb (electron-electron) energy:                              17.3261930225
        Maximum deviation from MO S-orthonormality                    0.2331E-14
        Minimum/Maximum MO magnitude              0.8606E+00          0.1518E+01
     5 Pulay/Diag. 0.50E+00    0.5     0.00038991       -17.1591802039  4.72E-03

  Trace(PS):                                    8.0000000000
  Electronic density on regular grids:         -8.0000016489       -0.0000016489
  Core density on regular grids:                7.9999997971       -0.0000002029
  Total charge density on r-space grids:       -0.0000018518
  Total charge density g-space grids:          -0.0000018518


  Core Hamiltonian energy:                                         12.7000671319
  Hartree energy:                                                  18.0640166000
  Exchange-correlation energy:                                     -4.0920358930
  Coulomb (electron-electron) energy:                              17.3255116183
        Maximum deviation from MO S-orthonormality                    0.3553E-14
        Minimum/Maximum MO magnitude              0.8605E+00          0.1518E+01
     6 Pulay/Diag. 0.50E+00    0.6     0.00015544       -17.1608426971 -1.66E-03

  Trace(PS):                                    8.0000000000
  Electronic density on regular grids:         -8.0000016489       -0.0000016489
  Core density on regular grids:                7.9999997971       -0.0000002029
  Total charge density on r-space grids:       -0.0000018518
  Total charge density g-space grids:          -0.0000018518


  Core Hamiltonian energy:                                         12.6995917089
  Hartree energy:                                                  18.0639071702
  Exchange-correlation energy:                                     -4.0920066771
  Coulomb (electron-electron) energy:                              17.3251158528
        Maximum deviation from MO S-orthonormality                    0.1998E-14
        Minimum/Maximum MO magnitude              0.8605E+00          0.1518E+01
     7 Pulay/Diag. 0.50E+00    0.6     0.00004638       -17.1613983340 -5.56E-04

  Trace(PS):                                    8.0000000000
  Electronic density on regular grids:         -8.0000016489       -0.0000016489
  Core density on regular grids:                7.9999997971       -0.0000002029
  Total charge density on r-space grids:       -0.0000018518
  Total charge density g-space grids:          -0.0000018518


  Core Hamiltonian energy:                                         12.6995511347
  Hartree energy:                                                  18.0638682574
  Exchange-correlation energy:                                     -4.0919902591
  Coulomb (electron-electron) energy:                              17.3248717595
        Maximum deviation from MO S-orthonormality                    0.1554E-14
        Minimum/Maximum MO magnitude              0.8605E+00          0.1519E+01
     8 Pulay/Diag. 0.50E+00    0.6     0.00003099       -17.1614614029 -6.31E-05

  Trace(PS):                                    8.0000000000
  Electronic density on regular grids:         -8.0000016489       -0.0000016489
  Core density on regular grids:                7.9999997971       -0.0000002029
  Total charge density on r-space grids:       -0.0000018518
  Total charge density g-space grids:          -0.0000018518


  Core Hamiltonian energy:                                         12.6995443923
  Hartree energy:                                                  18.0638561664
  Exchange-correlation energy:                                     -4.0919850421
  Coulomb (electron-electron) energy:                              17.3247761014
        Maximum deviation from MO S-orthonormality                    0.1554E-14
        Minimum/Maximum MO magnitude              0.8605E+00          0.1519E+01
     9 Pulay/Diag. 0.50E+00    0.6     0.00001176       -17.1614750194 -1.36E-05

  Trace(PS):                                    8.0000000000
  Electronic density on regular grids:         -8.0000016489       -0.0000016489
  Core density on regular grids:                7.9999997971       -0.0000002029
  Total charge density on r-space grids:       -0.0000018518
  Total charge density g-space grids:          -0.0000018518


  Core Hamiltonian energy:                                         12.6995441181
[...]
  Convergence in step size   =                  YES
  RMS step size              =         0.0001493298
  Conv. limit for RMS step   =         0.0010000000
  Convergence in RMS step    =                  YES
  Max. gradient              =         0.0001787448
  Conv. limit for gradients  =         0.0010000000
  Conv. in gradients         =                  YES
  RMS gradient               =         0.0000786642
  Conv. limit for RMS grad.  =         0.0010000000
  Conv. in RMS gradients     =                  YES
 ---------------------------------------------------

 *******************************************************************************
 ***                    GEOMETRY OPTIMIZATION COMPLETED                      ***
 *******************************************************************************

 REQUESTED STRUCTURE DATA

                    Reevaluating energy at the minimum

 REQUESTED STRUCTURE DATA

 DISTRIBUTION OF THE NEIGHBOR LISTS
              Total number of particle pairs:                                  6
              Total number of matrix elements:                               374
              Average number of particle pairs:                                6
              Maximum number of particle pairs:                                6
              Average number of matrix element:                              374
              Maximum number of matrix elements:                             374


 DISTRIBUTION OF THE OVERLAP MATRIX
              Number  of non-zero blocks:                                      6
              Percentage non-zero blocks:                                 100.00
              Average number of blocks per CPU:                                6
              Maximum number of blocks per CPU:                                6
              Average number of matrix elements per CPU:                     384
              Maximum number of matrix elements per CPU:                     384

 Initializing the DDAPC Environment

 Number of electrons:                                                          8
 Number of occupied orbitals:                                                  4
 Number of molecular orbitals:                                                 4

 Number of orbital functions:                                                 23
 Number of independent orbital functions:                                     23

 Parameters for the always stable predictor-corrector (ASPC) method:

  ASPC order: 3

  B(1) =   3.000000
  B(2) =  -3.428571
  B(3) =   1.928571
  B(4) =  -0.571429
  B(5) =   0.071429

 Extrapolation method: ASPC


 SCF WAVEFUNCTION OPTIMIZATION

  Step     Update method      Time    Convergence         Total energy    Change
  ------------------------------------------------------------------------------

  Trace(PS):                                    8.0000000000
  Electronic density on regular grids:         -8.0000016293       -0.0000016293
  Core density on regular grids:                7.9999992554       -0.0000007446
  Total charge density on r-space grids:       -0.0000023739
  Total charge density g-space grids:          -0.0000023739


  Core Hamiltonian energy:                                         12.8217818791
  Hartree energy:                                                  17.9739419421
  Exchange-correlation energy:                                     -4.1274537971
  Coulomb (electron-electron) energy:                              17.5461081270
        Maximum deviation from MO S-orthonormality                    0.6661E-15
        Minimum/Maximum MO magnitude              0.8580E+00          0.1571E+01
     1 Pulay/Diag. 0.50E+00    0.3     0.00005615       -17.1646204762 -1.72E+01

  Trace(PS):                                    8.0000000000
  Electronic density on regular grids:         -8.0000016293       -0.0000016293
  Core density on regular grids:                7.9999992554       -0.0000007446
  Total charge density on r-space grids:       -0.0000023739
  Total charge density g-space grids:          -0.0000023739


  Core Hamiltonian energy:                                         12.8217560577
  Hartree energy:                                                  17.9739511612
  Exchange-correlation energy:                                     -4.1274514897
  Coulomb (electron-electron) energy:                              17.5460958683
        Maximum deviation from MO S-orthonormality                    0.1554E-14
        Minimum/Maximum MO magnitude              0.8580E+00          0.1571E+01
     2 Pulay/Diag. 0.50E+00    0.5     0.00000563       -17.1646347711 -1.43E-05

  *** SCF run converged in     2 steps ***


  Electronic density on regular grids:         -8.0000016293       -0.0000016293
  Core density on regular grids:                7.9999992554       -0.0000007446
  Total charge density on r-space grids:       -0.0000023739
  Total charge density g-space grids:          -0.0000023739

  Overlap energy of the core charge distribution:               0.00000004555422
  Self energy of the core charge distribution:                -43.83289054591484
  Core Hamiltonian energy:                                     12.82175605771009
  Hartree energy:                                              17.97395116120773
  Exchange-correlation energy:                                 -4.12745148966159
  Coulomb Electron-Electron Interaction Energy
  - Already included in the total Hartree term                 17.54609586829395

  Total energy:                                               -17.16463477110439

 The electron density is written in cube file format to the file:

 H2O-ELECTRON_DENSITY-1_11.cube


 MULLIKEN POPULATION ANALYSIS

 #  Atom  Element  Kind  Atomic population                Net charge
       1     O        1          6.626128                 -0.626128
       2     H        2          0.686790                  0.313210
       3     H        2          0.687082                  0.312918
 # Total charge                  8.000000                  0.000000


 !-----------------------------------------------------------------------------!
                           Hirschfeld Charges

  #Atom  Element  Kind  Ref Charge     Population                     Net charge
      1       O      1       6.000          6.554                         -0.554
      2       H      2       1.000          0.723                          0.277
      3       H      2       1.000          0.723                          0.277

  Total Charge                                                             0.000
 !-----------------------------------------------------------------------------!
  Electronic kinetic energy:                                  13.67471617436879


 LOWDIN POPULATION ANALYSIS

 #  Atom  Element  Kind  Atomic population                Net charge
       1     O        1          6.476741                 -0.476741
       2     H        2          0.762319                  0.237681
       3     H        2          0.760940                  0.239060
 # Total charge                  8.000000                  0.000000

  DDAP FULL DENSITY charges:
  Atom     |    Charge

     1  O    -0.700086
     2  H     0.350350
     3  H     0.349734
  Total      -0.000002


 ELECTRIC/MAGNETIC MOMENTS
  Reference Point [Bohr]           0.00000000    0.00000000    0.00000000
  Charges
    Electronic=      8.00000000    Core=    -8.00000000    Total=     -0.00000000
  Dipole vectors are based on the periodic (Berry phase) operator.
  They are defined modulo integer multiples of the cell matrix [Debye].
  [X] [   59.62601719     0.00000000     0.00000000 ] [i]
  [Y]=[    0.00000000    59.62601719     0.00000000 ]*[j]
  [Z] [    0.00000000     0.00000000    59.62601719 ] [k]
  Dipole moment [Debye]
    X=   -0.16629194 Y=    1.90878976 Z=   -1.02230030     Total=      2.17168811

  Eigenvalues of the occupied subspace spin            1
 ---------------------------------------------
      -0.90584021      -0.46825617      -0.32339364      -0.24933184
 Fermi Energy [eV] :   -6.784664

  Lowest eigenvalues of the unoccupied subspace spin            1
 ---------------------------------------------


 ENERGY| Total FORCE_EVAL ( QS ) energy (a.u.):              -17.164634771104389



 *************************************************************************
 *** WARNING in force_env_calc_energy_force (MODULE force_env_methods) ***
 *************************************************************************

 *** To print the stress tensor switch on the virial evaluation with the ***
 *** keyword: STRESS_TENSOR                                              ***

 -------------------------------------------------------------------------------
 -                                                                             -
 -                                DBCSR STATISTICS                             -
 -                                                                             -
 -------------------------------------------------------------------------------
 COUNTER                                      CPU                  ACC      ACC%
 number of processed stacks                 10080                    0       0.0
 matmuls inhomo. stacks                         0                    0       0.0
 matmuls total                              20301                    0       0.0
 flops  13 x    5 x    4                   412360                    0       0.0
 flops   5 x   13 x    4                   412360                    0       0.0
 flops   5 x   23 x    5                   464600                    0       0.0
 flops   5 x    5 x    4                   475800                    0       0.0
 flops  13 x   23 x    5                   603980                    0       0.0
 flops   5 x   23 x   13                   603980                    0       0.0
 flops  13 x   23 x   13                   785174                    0       0.0
 flops  13 x   13 x    4                  1072136                    0       0.0
 flops   5 x    4 x    5                  1300800                    0       0.0
 flops  13 x    4 x    5                  1691040                    0       0.0
 flops   5 x    4 x   13                  1691040                    0       0.0
 flops  13 x    4 x   13                  2198352                    0       0.0
 flops total                             11711622                    0       0.0
 marketing flops                         12694942
 -------------------------------------------------------------------------------

 -------------------------------------------------------------------------------
 ----                             MULTIGRID INFO                            ----
 -------------------------------------------------------------------------------
 count for grid        1:          10798          cutoff [a.u.]          100.00
 count for grid        2:           5948          cutoff [a.u.]           33.33
 count for grid        3:           2082          cutoff [a.u.]           11.11
 count for grid        4:            351          cutoff [a.u.]            3.70
 total gridlevel count  :          19179

 -------------------------------------------------------------------------------
 -                                                                             -
 -                         MESSAGE PASSING PERFORMANCE                         -
 -                                                                             -
 -------------------------------------------------------------------------------

 ROUTINE             CALLS  TOT TIME [s]  AVE VOLUME [Bytes]  PERFORMANCE [MB/s]
 MP_Group                5         0.000
 MP_Bcast              703         0.017                  4.                0.17
 MP_Allreduce        16132         0.017                 18.               17.92
 MP_Sync           2061620         0.133
 MP_Alltoall         41034         0.021                674.             1293.65
 MP_Wait             60480         0.015
 MP_ISend            20160         0.020               2105.             2153.58
 MP_IRecv            20160         0.010               2105.             4354.50
 MP_Memory           53572         0.023
 -------------------------------------------------------------------------------


 -------------------------------------------------------------------------------
 -                                                                             -
 -                           R E F E R E N C E S                               -
 -                                                                             -
 -------------------------------------------------------------------------------

 CP2K version 2.6.2, the CP2K developers group (2015).
 CP2K is freely available from http://www.cp2k.org/ .

 Borstnik, U; VandeVondele, J; Weber, V; Hutter, J.
 PARALLEL COMPUTING, 40 (5-6), 47-58 (2014).
 Sparse matrix multiplication: The distributed block-compressed sparse
 row library.
 http://dx.doi.org/10.1016/j.parco.2014.03.012


 Hutter, J; Iannuzzi, M; Schiffmann, F; VandeVondele, J.
 WILEY INTERDISCIPLINARY REVIEWS-COMPUTATIONAL MOLECULAR SCIENCE, 4 (1), 15-25 (2014).
 CP2K: atomistic simulations of condensed matter systems.
 http://dx.doi.org/10.1002/wcms.1159


 Krack, M.
 THEORETICAL CHEMISTRY ACCOUNTS, 114 (1-3), 145-152 (2005).
 Pseudopotentials for H to Kr optimized for gradient-corrected
 exchange-correlation functionals.
 http://dx.doi.org/10.1007/s00214-005-0655-y


 VandeVondele, J; Krack, M; Mohamed, F; Parrinello, M; Chassaing, T;
 Hutter, J. COMPUTER PHYSICS COMMUNICATIONS, 167 (2), 103-128 (2005).
 QUICKSTEP: Fast and accurate density functional calculations using a
 mixed Gaussian and plane waves approach.
 http://dx.doi.org/10.1016/j.cpc.2004.12.014


 Frigo, M; Johnson, SG.
 PROCEEDINGS OF THE IEEE, 93 (2), 216-231 (2005).
 The design and implementation of FFTW3.
 http://dx.doi.org/10.1109/JPROC.2004.840301


 Kolafa, J.
 JOURNAL OF COMPUTATIONAL CHEMISTRY, 25 (3), 335-342 (2004).
 Time-reversible always stable predictor-corrector method for molecular dynamics of polarizable molecules.
 http://dx.doi.org/10.1002/jcc.10385


 Hartwigsen, C; Goedecker, S; Hutter, J.
 PHYSICAL REVIEW B, 58 (7), 3641-3662 (1998).
 Relativistic separable dual-space Gaussian pseudopotentials from H to Rn.
 http://dx.doi.org/10.1103/PhysRevB.58.3641


 Lippert, G; Hutter, J; Parrinello, M.
 MOLECULAR PHYSICS, 92 (3), 477-487 (1997).
 A hybrid Gaussian and plane wave density functional scheme.
 http://dx.doi.org/10.1080/002689797170220


 Goedecker, S; Teter, M; Hutter, J.
 PHYSICAL REVIEW B, 54 (3), 1703-1710 (1996).
 Separable dual-space Gaussian pseudopotentials.
 http://dx.doi.org/10.1103/PhysRevB.54.1703


 -------------------------------------------------------------------------------
 -                                                                             -
 -                                T I M I N G                                  -
 -                                                                             -
 -------------------------------------------------------------------------------
 SUBROUTINE                       CALLS  ASD         SELF TIME        TOTAL TIME
                                MAXIMUM       AVERAGE  MAXIMUM  AVERAGE  MAXIMUM
 CP2K                                 1  1.0    0.030    0.030  550.641  550.641
 cp_geo_opt                           1  2.0    0.024    0.024  549.838  549.838
 geoopt_cg                            1  3.0    0.000    0.000  549.815  549.815
 cp_cg_main                           1  4.0    0.019    0.019  549.815  549.815
 cp_eval_at                         101  8.5    0.012    0.012  549.785  549.785
 qs_energies_scf                    101 10.1    0.024    0.024  532.606  532.606
 cg_linmin                           11  5.0    0.000    0.000  487.072  487.072
 linmin_gold                         11  6.0    0.000    0.000  487.072  487.072
 qs_forces                           63  9.3    0.014    0.014  363.470  363.470
 scf_env_do_scf                     101 11.1    0.006    0.006  335.290  335.290
 scf_env_do_scf_inner_loop          630 12.2    0.061    0.061  335.284  335.284
 cg_dbrent                           11  7.0    0.000    0.000  303.694  303.694
 cg_deval1d                          52  8.0    0.000    0.000  303.693  303.693
 fft_wrap_pw1pw2                   8962 16.7    0.098    0.098  297.506  297.506
 fft_wrap_pw1pw2_100               4387 17.0   12.919   12.919  279.217  279.217
 fft3d_s                           8963 18.7  202.714  202.714  202.813  202.813
 rebuild_ks_matrix                  693 14.0    0.002    0.002  189.040  189.040
 qs_ks_build_kohn_sham_matrix       693 15.0    0.133    0.133  189.039  189.039
 cg_mnbrak                           11  7.0    0.000    0.000  183.378  183.378
 cg_eval1d                           37  8.0    0.000    0.000  183.378  183.378
 qs_ks_update_qs_env                630 13.2    0.006    0.006  171.958  171.958
 scf_post_calculation_gpw           101 11.1    0.006    0.006  155.164  155.164
 write_available_results            101 12.1    0.011    0.011  125.555  125.555
 write_mo_free_results              101 13.1    0.962    0.962  125.542  125.542
 qs_rho_update_rho                  731 13.4    0.004    0.004  117.098  117.098
 calculate_rho_elec                 731 14.4    6.102    6.102  117.094  117.094
 density_rs2pw                      731 15.4    0.017    0.017  109.915  109.915
 pw_to_cube                         707 14.0   88.704   88.704   88.704   88.704
 sum_up_and_integrate               693 16.0    1.417    1.417   62.014   62.014
 gspace_mixing                      529 13.3    3.319    3.319   61.292   61.292
 integrate_v_rspace                 693 17.0    2.535    2.535   60.596   60.596
 potential_pw2rs                    693 18.0    0.235    0.235   58.000   58.000
 pw_scatter_s                      4537 19.0   42.414   42.414   42.414   42.414
 pw_gather_s                       4425 18.4   38.187   38.187   38.187   38.187
 qs_vxc_create                      693 16.0    0.024    0.024   37.743   37.743
 xc_vxc_pw_create                   693 17.0    4.309    4.309   37.719   37.719
 init_scf_run                       101 11.1    0.020    0.020   33.470   33.470
 xc_rho_set_and_dset_create         693 18.0    0.015    0.015   33.407   33.407
 scf_env_initial_rho_setup          101 12.1    0.003    0.003   33.394   33.394
 pw_poisson_solve                  1386 16.0   21.580   21.580   32.088   32.088
 xc_functional_eval                 693 19.0   32.013   32.013   32.013   32.013
 qs_scf_post_occ_cubes              101 12.1    0.015    0.015   28.174   28.174
 pulay_mixing                       529 14.3   25.501   25.501   25.513   25.513
 pw_copy                           7132 17.8   17.326   17.326   17.326   17.326
 qs_ks_update_qs_env_forces          63 10.3    0.000    0.000   17.101   17.101
 mixing_init                        101 13.1   16.770   16.770   16.770   16.770
 wfi_extrapolate                    101 13.1    0.008    0.008   16.380   16.380
 calculate_wavefunction             101 13.1    0.030    0.030   15.224   15.224
 fft_wrap_pw1pw2_40                1525 18.4    0.953    0.953   15.142   15.142
 -------------------------------------------------------------------------------

  **** **** ******  **  PROGRAM ENDED AT                 2016-05-09 12:08:23.144
 ***** ** ***  *** **   PROGRAM RAN ON                       lauri-Lenovo-Z50-70
 **    ****   ******    PROGRAM RAN BY                                     lauri
 ***** **    ** ** **   PROGRAM PROCESS ID                                  5612
  **** **  *******  **  PROGRAM STOPPED IN /home/lauri/Dropbox/nomad-dev/nomad-l
                                           ab-base/parsers/cp2k/test/unittests/c
                                           p2k_2.6.2/geo_opt
