                                                                                     
                             WELCOME TO ABACUS                                       
                                                                                     
               'Atomic-orbital Based Ab-initio Computation at UStc'                  
                                                                                     
                     Website: http://abacus.ustc.edu.cn/                             
                                                                                     
    Version: Parallel, in development
    Processor Number is 8
    Start Time is Wed Jul  6 15:44:55 2022
                                                                                     
 ------------------------------------------------------------------------------------

 READING GENERAL INFORMATION
                           global_out_dir = OUT.ABACUS/
                           global_in_card = INPUT
                               pseudo_dir = 
                              orbital_dir = 
                              pseudo_type = auto
                                    DRANK = 1
                                    DSIZE = 8
                                   DCOLOR = 1
                                    GRANK = 1
                                    GSIZE = 1




 >>>>>>>>>>>>>>>>>>>>>>>>>>>>>>>>>>>>>>>>>>>>>>>>>>>>>>>>>>>>>>>>>>>>>>
 |                                                                    |
 | Reading atom information in unitcell:                              |
 | From the input file and the structure file we know the number of   |
 | different elments in this unitcell, then we list the detail        |
 | information for each element, especially the zeta and polar atomic |
 | orbital number for each element. The total atom number is counted. |
 | We calculate the nearest atom distance for each atom and show the  |
 | Cartesian and Direct coordinates for each atom. We list the file   |
 | address for atomic orbitals. The volume and the lattice vectors    |
 | in real and reciprocal space is also shown.                        |
 |                                                                    |
 <<<<<<<<<<<<<<<<<<<<<<<<<<<<<<<<<<<<<<<<<<<<<<<<<<<<<<<<<<<<<<<<<<<<<<




 READING UNITCELL INFORMATION
                                    ntype = 1
                 atom label for species 1 = Si
                  lattice constant (Bohr) = 10.2
              lattice constant (Angstrom) = 5.39761

 READING ATOM TYPE 1
                               atom label = Si
                      L=0, number of zeta = 2
                      L=1, number of zeta = 2
                      L=2, number of zeta = 1
             number of atom for this type = 2
                      start magnetization = 0
                      start magnetization = 0

                        TOTAL ATOM NUMBER = 2

 CARTESIAN COORDINATES ( UNIT = 10.2 Bohr ).
         atom                   x                   y                   z                 mag                  vx                  vy                  vz
     tauc_Si1                   0                   0                   0                   0                   0                   0                   0
     tauc_Si2                0.25                0.25                0.25                   0                   0                   0                   0


 READING ORBITAL FILE NAMES FOR LCAO
 orbital file: ./Si_lda_8.0au_50Ry_2s2p1d

                          Volume (Bohr^3) = 265.302
                             Volume (A^3) = 39.3136533177

 Lattice vectors: (Cartesian coordinate: in unit of a_0)
                 +0.5                +0.5                  +0
                 +0.5                  +0                +0.5
                   +0                +0.5                +0.5
 Reciprocal vectors: (Cartesian coordinate: in unit of 2 pi/a_0)
                   +1                  +1                  -1
                   +1                  -1                  +1
                   -1                  +1                  +1




 >>>>>>>>>>>>>>>>>>>>>>>>>>>>>>>>>>>>>>>>>>>>>>>>>>>>>>>>>>>>>>>>>>>>>>
 |                                                                    |
 | Reading pseudopotentials files:                                    |
 | The pseudopotential file is in UPF format. The 'NC' indicates that |
 | the type of pseudopotential is 'norm conserving'. Functional of    |
 | exchange and correlation is decided by 4 given parameters in UPF   |
 | file.  We also read in the 'core correction' if there exists.      |
 | Also we can read the valence electrons number and the maximal      |
 | angular momentum used in this pseudopotential. We also read in the |
 | trail wave function, trail atomic density and local-pseudopotential|
 | on logrithmic grid. The non-local pseudopotential projector is also|
 | read in if there is any.                                           |
 |                                                                    |
 <<<<<<<<<<<<<<<<<<<<<<<<<<<<<<<<<<<<<<<<<<<<<<<<<<<<<<<<<<<<<<<<<<<<<<




                PAO radial cut off (Bohr) = 15

 Read in pseudopotential file is Si.pz-vbc.UPF
                     pseudopotential type = NC
          exchange-correlation functional = PZ
                 nonlocal core correction = 0
                        valence electrons = 4
                                     lmax = 1
                           number of zeta = 2
                     number of projectors = 2
                           L of projector = 0
                           L of projector = 1
     initial pseudo atomic orbital number = 8
                                   NLOCAL = 26

 SETUP THE ELECTRONS NUMBER
            electron number of element Si = 4
      total electron number of element Si = 8
                           occupied bands = 4
                                   NLOCAL = 26
                                   NBANDS = 8
                                   NBANDS = 8
 DONE : SETUP UNITCELL Time : 0.0193099975586 (SEC)





 >>>>>>>>>>>>>>>>>>>>>>>>>>>>>>>>>>>>>>>>>>>>>>>>>>>>>>>>>>>>>>>>>>>>>>
 |                                                                    |
 | Setup K-points                                                     |
 | We setup the k-points according to input parameters.               |
 | The reduced k-points are set according to symmetry operations.     |
 | We treat the spin as another set of k-points.                      |
 |                                                                    |
 <<<<<<<<<<<<<<<<<<<<<<<<<<<<<<<<<<<<<<<<<<<<<<<<<<<<<<<<<<<<<<<<<<<<<<





 SETUP K-POINTS
                                    nspin = 2
                   Input type of k points = Monkhorst-Pack(Gamma)
                                   nkstot = 1728

  KPOINTS            DIRECT_X            DIRECT_Y            DIRECT_Z              WEIGHT
        1                   0                   0                   0   0.000578703703704
        2     0.0833333333333                   0                   0   0.000578703703704
        3      0.166666666667                   0                   0   0.000578703703704
        4                0.25                   0                   0   0.000578703703704
        5      0.333333333333                   0                   0   0.000578703703704
        6      0.416666666667                   0                   0   0.000578703703704
        7                 0.5                   0                   0   0.000578703703704
        8      0.583333333333                   0                   0   0.000578703703704
        9      0.666666666667                   0                   0   0.000578703703704
       10                0.75                   0                   0   0.000578703703704
       11      0.833333333333                   0                   0   0.000578703703704
       12      0.916666666667                   0                   0   0.000578703703704
       13                   0     0.0833333333333                   0   0.000578703703704
       14     0.0833333333333     0.0833333333333                   0   0.000578703703704
       15      0.166666666667     0.0833333333333                   0   0.000578703703704
       16                0.25     0.0833333333333                   0   0.000578703703704
       17      0.333333333333     0.0833333333333                   0   0.000578703703704
       18      0.416666666667     0.0833333333333                   0   0.000578703703704
       19                 0.5     0.0833333333333                   0   0.000578703703704
       20      0.583333333333     0.0833333333333                   0   0.000578703703704
       21      0.666666666667     0.0833333333333                   0   0.000578703703704
       22                0.75     0.0833333333333                   0   0.000578703703704
       23      0.833333333333     0.0833333333333                   0   0.000578703703704
       24      0.916666666667     0.0833333333333                   0   0.000578703703704
       25                   0      0.166666666667                   0   0.000578703703704
       26     0.0833333333333      0.166666666667                   0   0.000578703703704
       27      0.166666666667      0.166666666667                   0   0.000578703703704
       28                0.25      0.166666666667                   0   0.000578703703704
       29      0.333333333333      0.166666666667                   0   0.000578703703704
       30      0.416666666667      0.166666666667                   0   0.000578703703704
       31                 0.5      0.166666666667                   0   0.000578703703704
       32      0.583333333333      0.166666666667                   0   0.000578703703704
       33      0.666666666667      0.166666666667                   0   0.000578703703704
       34                0.75      0.166666666667                   0   0.000578703703704
       35      0.833333333333      0.166666666667                   0   0.000578703703704
       36      0.916666666667      0.166666666667                   0   0.000578703703704
       37                   0                0.25                   0   0.000578703703704
       38     0.0833333333333                0.25                   0   0.000578703703704
       39      0.166666666667                0.25                   0   0.000578703703704
       40                0.25                0.25                   0   0.000578703703704
       41      0.333333333333                0.25                   0   0.000578703703704
       42      0.416666666667                0.25                   0   0.000578703703704
       43                 0.5                0.25                   0   0.000578703703704
       44      0.583333333333                0.25                   0   0.000578703703704
       45      0.666666666667                0.25                   0   0.000578703703704
       46                0.75                0.25                   0   0.000578703703704
       47      0.833333333333                0.25                   0   0.000578703703704
       48      0.916666666667                0.25                   0   0.000578703703704
       49                   0      0.333333333333                   0   0.000578703703704
       50     0.0833333333333      0.333333333333                   0   0.000578703703704
       51      0.166666666667      0.333333333333                   0   0.000578703703704
       52                0.25      0.333333333333                   0   0.000578703703704
       53      0.333333333333      0.333333333333                   0   0.000578703703704
       54      0.416666666667      0.333333333333                   0   0.000578703703704
       55                 0.5      0.333333333333                   0   0.000578703703704
       56      0.583333333333      0.333333333333                   0   0.000578703703704
       57      0.666666666667      0.333333333333                   0   0.000578703703704
       58                0.75      0.333333333333                   0   0.000578703703704
       59      0.833333333333      0.333333333333                   0   0.000578703703704
       60      0.916666666667      0.333333333333                   0   0.000578703703704
       61                   0      0.416666666667                   0   0.000578703703704
       62     0.0833333333333      0.416666666667                   0   0.000578703703704
       63      0.166666666667      0.416666666667                   0   0.000578703703704
       64                0.25      0.416666666667                   0   0.000578703703704
       65      0.333333333333      0.416666666667                   0   0.000578703703704
       66      0.416666666667      0.416666666667                   0   0.000578703703704
       67                 0.5      0.416666666667                   0   0.000578703703704
       68      0.583333333333      0.416666666667                   0   0.000578703703704
       69      0.666666666667      0.416666666667                   0   0.000578703703704
       70                0.75      0.416666666667                   0   0.000578703703704
       71      0.833333333333      0.416666666667                   0   0.000578703703704
       72      0.916666666667      0.416666666667                   0   0.000578703703704
       73                   0                 0.5                   0   0.000578703703704
       74     0.0833333333333                 0.5                   0   0.000578703703704
       75      0.166666666667                 0.5                   0   0.000578703703704
       76                0.25                 0.5                   0   0.000578703703704
       77      0.333333333333                 0.5                   0   0.000578703703704
       78      0.416666666667                 0.5                   0   0.000578703703704
       79                 0.5                 0.5                   0   0.000578703703704
       80      0.583333333333                 0.5                   0   0.000578703703704
       81      0.666666666667                 0.5                   0   0.000578703703704
       82                0.75                 0.5                   0   0.000578703703704
       83      0.833333333333                 0.5                   0   0.000578703703704
       84      0.916666666667                 0.5                   0   0.000578703703704
       85                   0      0.583333333333                   0   0.000578703703704
       86     0.0833333333333      0.583333333333                   0   0.000578703703704
       87      0.166666666667      0.583333333333                   0   0.000578703703704
       88                0.25      0.583333333333                   0   0.000578703703704
       89      0.333333333333      0.583333333333                   0   0.000578703703704
       90      0.416666666667      0.583333333333                   0   0.000578703703704
       91                 0.5      0.583333333333                   0   0.000578703703704
       92      0.583333333333      0.583333333333                   0   0.000578703703704
       93      0.666666666667      0.583333333333                   0   0.000578703703704
       94                0.75      0.583333333333                   0   0.000578703703704
       95      0.833333333333      0.583333333333                   0   0.000578703703704
       96      0.916666666667      0.583333333333                   0   0.000578703703704
       97                   0      0.666666666667                   0   0.000578703703704
       98     0.0833333333333      0.666666666667                   0   0.000578703703704
       99      0.166666666667      0.666666666667                   0   0.000578703703704
      100                0.25      0.666666666667                   0   0.000578703703704
      101      0.333333333333      0.666666666667                   0   0.000578703703704
      102      0.416666666667      0.666666666667                   0   0.000578703703704
      103                 0.5      0.666666666667                   0   0.000578703703704
      104      0.583333333333      0.666666666667                   0   0.000578703703704
      105      0.666666666667      0.666666666667                   0   0.000578703703704
      106                0.75      0.666666666667                   0   0.000578703703704
      107      0.833333333333      0.666666666667                   0   0.000578703703704
      108      0.916666666667      0.666666666667                   0   0.000578703703704
      109                   0                0.75                   0   0.000578703703704
      110     0.0833333333333                0.75                   0   0.000578703703704
      111      0.166666666667                0.75                   0   0.000578703703704
      112                0.25                0.75                   0   0.000578703703704
      113      0.333333333333                0.75                   0   0.000578703703704
      114      0.416666666667                0.75                   0   0.000578703703704
      115                 0.5                0.75                   0   0.000578703703704
      116      0.583333333333                0.75                   0   0.000578703703704
      117      0.666666666667                0.75                   0   0.000578703703704
      118                0.75                0.75                   0   0.000578703703704
      119      0.833333333333                0.75                   0   0.000578703703704
      120      0.916666666667                0.75                   0   0.000578703703704
      121                   0      0.833333333333                   0   0.000578703703704
      122     0.0833333333333      0.833333333333                   0   0.000578703703704
      123      0.166666666667      0.833333333333                   0   0.000578703703704
      124                0.25      0.833333333333                   0   0.000578703703704
      125      0.333333333333      0.833333333333                   0   0.000578703703704
      126      0.416666666667      0.833333333333                   0   0.000578703703704
      127                 0.5      0.833333333333                   0   0.000578703703704
      128      0.583333333333      0.833333333333                   0   0.000578703703704
      129      0.666666666667      0.833333333333                   0   0.000578703703704
      130                0.75      0.833333333333                   0   0.000578703703704
      131      0.833333333333      0.833333333333                   0   0.000578703703704
      132      0.916666666667      0.833333333333                   0   0.000578703703704
      133                   0      0.916666666667                   0   0.000578703703704
      134     0.0833333333333      0.916666666667                   0   0.000578703703704
      135      0.166666666667      0.916666666667                   0   0.000578703703704
      136                0.25      0.916666666667                   0   0.000578703703704
      137      0.333333333333      0.916666666667                   0   0.000578703703704
      138      0.416666666667      0.916666666667                   0   0.000578703703704
      139                 0.5      0.916666666667                   0   0.000578703703704
      140      0.583333333333      0.916666666667                   0   0.000578703703704
      141      0.666666666667      0.916666666667                   0   0.000578703703704
      142                0.75      0.916666666667                   0   0.000578703703704
      143      0.833333333333      0.916666666667                   0   0.000578703703704
      144      0.916666666667      0.916666666667                   0   0.000578703703704
      145                   0                   0     0.0833333333333   0.000578703703704
      146     0.0833333333333                   0     0.0833333333333   0.000578703703704
      147      0.166666666667                   0     0.0833333333333   0.000578703703704
      148                0.25                   0     0.0833333333333   0.000578703703704
      149      0.333333333333                   0     0.0833333333333   0.000578703703704
      150      0.416666666667                   0     0.0833333333333   0.000578703703704
      151                 0.5                   0     0.0833333333333   0.000578703703704
      152      0.583333333333                   0     0.0833333333333   0.000578703703704
      153      0.666666666667                   0     0.0833333333333   0.000578703703704
      154                0.75                   0     0.0833333333333   0.000578703703704
      155      0.833333333333                   0     0.0833333333333   0.000578703703704
      156      0.916666666667                   0     0.0833333333333   0.000578703703704
      157                   0     0.0833333333333     0.0833333333333   0.000578703703704
      158     0.0833333333333     0.0833333333333     0.0833333333333   0.000578703703704
      159      0.166666666667     0.0833333333333     0.0833333333333   0.000578703703704
      160                0.25     0.0833333333333     0.0833333333333   0.000578703703704
      161      0.333333333333     0.0833333333333     0.0833333333333   0.000578703703704
      162      0.416666666667     0.0833333333333     0.0833333333333   0.000578703703704
      163                 0.5     0.0833333333333     0.0833333333333   0.000578703703704
      164      0.583333333333     0.0833333333333     0.0833333333333   0.000578703703704
      165      0.666666666667     0.0833333333333     0.0833333333333   0.000578703703704
      166                0.75     0.0833333333333     0.0833333333333   0.000578703703704
      167      0.833333333333     0.0833333333333     0.0833333333333   0.000578703703704
      168      0.916666666667     0.0833333333333     0.0833333333333   0.000578703703704
      169                   0      0.166666666667     0.0833333333333   0.000578703703704
      170     0.0833333333333      0.166666666667     0.0833333333333   0.000578703703704
      171      0.166666666667      0.166666666667     0.0833333333333   0.000578703703704
      172                0.25      0.166666666667     0.0833333333333   0.000578703703704
      173      0.333333333333      0.166666666667     0.0833333333333   0.000578703703704
      174      0.416666666667      0.166666666667     0.0833333333333   0.000578703703704
      175                 0.5      0.166666666667     0.0833333333333   0.000578703703704
      176      0.583333333333      0.166666666667     0.0833333333333   0.000578703703704
      177      0.666666666667      0.166666666667     0.0833333333333   0.000578703703704
      178                0.75      0.166666666667     0.0833333333333   0.000578703703704
      179      0.833333333333      0.166666666667     0.0833333333333   0.000578703703704
      180      0.916666666667      0.166666666667     0.0833333333333   0.000578703703704
      181                   0                0.25     0.0833333333333   0.000578703703704
      182     0.0833333333333                0.25     0.0833333333333   0.000578703703704
      183      0.166666666667                0.25     0.0833333333333   0.000578703703704
      184                0.25                0.25     0.0833333333333   0.000578703703704
      185      0.333333333333                0.25     0.0833333333333   0.000578703703704
      186      0.416666666667                0.25     0.0833333333333   0.000578703703704
      187                 0.5                0.25     0.0833333333333   0.000578703703704
      188      0.583333333333                0.25     0.0833333333333   0.000578703703704
      189      0.666666666667                0.25     0.0833333333333   0.000578703703704
      190                0.75                0.25     0.0833333333333   0.000578703703704
      191      0.833333333333                0.25     0.0833333333333   0.000578703703704
      192      0.916666666667                0.25     0.0833333333333   0.000578703703704
      193                   0      0.333333333333     0.0833333333333   0.000578703703704
      194     0.0833333333333      0.333333333333     0.0833333333333   0.000578703703704
      195      0.166666666667      0.333333333333     0.0833333333333   0.000578703703704
      196                0.25      0.333333333333     0.0833333333333   0.000578703703704
      197      0.333333333333      0.333333333333     0.0833333333333   0.000578703703704
      198      0.416666666667      0.333333333333     0.0833333333333   0.000578703703704
      199                 0.5      0.333333333333     0.0833333333333   0.000578703703704
      200      0.583333333333      0.333333333333     0.0833333333333   0.000578703703704
      201      0.666666666667      0.333333333333     0.0833333333333   0.000578703703704
      202                0.75      0.333333333333     0.0833333333333   0.000578703703704
      203      0.833333333333      0.333333333333     0.0833333333333   0.000578703703704
      204      0.916666666667      0.333333333333     0.0833333333333   0.000578703703704
      205                   0      0.416666666667     0.0833333333333   0.000578703703704
      206     0.0833333333333      0.416666666667     0.0833333333333   0.000578703703704
      207      0.166666666667      0.416666666667     0.0833333333333   0.000578703703704
      208                0.25      0.416666666667     0.0833333333333   0.000578703703704
      209      0.333333333333      0.416666666667     0.0833333333333   0.000578703703704
      210      0.416666666667      0.416666666667     0.0833333333333   0.000578703703704
      211                 0.5      0.416666666667     0.0833333333333   0.000578703703704
      212      0.583333333333      0.416666666667     0.0833333333333   0.000578703703704
      213      0.666666666667      0.416666666667     0.0833333333333   0.000578703703704
      214                0.75      0.416666666667     0.0833333333333   0.000578703703704
      215      0.833333333333      0.416666666667     0.0833333333333   0.000578703703704
      216      0.916666666667      0.416666666667     0.0833333333333   0.000578703703704
      217                   0                 0.5     0.0833333333333   0.000578703703704
      218     0.0833333333333                 0.5     0.0833333333333   0.000578703703704
      219      0.166666666667                 0.5     0.0833333333333   0.000578703703704
      220                0.25                 0.5     0.0833333333333   0.000578703703704
      221      0.333333333333                 0.5     0.0833333333333   0.000578703703704
      222      0.416666666667                 0.5     0.0833333333333   0.000578703703704
      223                 0.5                 0.5     0.0833333333333   0.000578703703704
      224      0.583333333333                 0.5     0.0833333333333   0.000578703703704
      225      0.666666666667                 0.5     0.0833333333333   0.000578703703704
      226                0.75                 0.5     0.0833333333333   0.000578703703704
      227      0.833333333333                 0.5     0.0833333333333   0.000578703703704
      228      0.916666666667                 0.5     0.0833333333333   0.000578703703704
      229                   0      0.583333333333     0.0833333333333   0.000578703703704
      230     0.0833333333333      0.583333333333     0.0833333333333   0.000578703703704
      231      0.166666666667      0.583333333333     0.0833333333333   0.000578703703704
      232                0.25      0.583333333333     0.0833333333333   0.000578703703704
      233      0.333333333333      0.583333333333     0.0833333333333   0.000578703703704
      234      0.416666666667      0.583333333333     0.0833333333333   0.000578703703704
      235                 0.5      0.583333333333     0.0833333333333   0.000578703703704
      236      0.583333333333      0.583333333333     0.0833333333333   0.000578703703704
      237      0.666666666667      0.583333333333     0.0833333333333   0.000578703703704
      238                0.75      0.583333333333     0.0833333333333   0.000578703703704
      239      0.833333333333      0.583333333333     0.0833333333333   0.000578703703704
      240      0.916666666667      0.583333333333     0.0833333333333   0.000578703703704
      241                   0      0.666666666667     0.0833333333333   0.000578703703704
      242     0.0833333333333      0.666666666667     0.0833333333333   0.000578703703704
      243      0.166666666667      0.666666666667     0.0833333333333   0.000578703703704
      244                0.25      0.666666666667     0.0833333333333   0.000578703703704
      245      0.333333333333      0.666666666667     0.0833333333333   0.000578703703704
      246      0.416666666667      0.666666666667     0.0833333333333   0.000578703703704
      247                 0.5      0.666666666667     0.0833333333333   0.000578703703704
      248      0.583333333333      0.666666666667     0.0833333333333   0.000578703703704
      249      0.666666666667      0.666666666667     0.0833333333333   0.000578703703704
      250                0.75      0.666666666667     0.0833333333333   0.000578703703704
      251      0.833333333333      0.666666666667     0.0833333333333   0.000578703703704
      252      0.916666666667      0.666666666667     0.0833333333333   0.000578703703704
      253                   0                0.75     0.0833333333333   0.000578703703704
      254     0.0833333333333                0.75     0.0833333333333   0.000578703703704
      255      0.166666666667                0.75     0.0833333333333   0.000578703703704
      256                0.25                0.75     0.0833333333333   0.000578703703704
      257      0.333333333333                0.75     0.0833333333333   0.000578703703704
      258      0.416666666667                0.75     0.0833333333333   0.000578703703704
      259                 0.5                0.75     0.0833333333333   0.000578703703704
      260      0.583333333333                0.75     0.0833333333333   0.000578703703704
      261      0.666666666667                0.75     0.0833333333333   0.000578703703704
      262                0.75                0.75     0.0833333333333   0.000578703703704
      263      0.833333333333                0.75     0.0833333333333   0.000578703703704
      264      0.916666666667                0.75     0.0833333333333   0.000578703703704
      265                   0      0.833333333333     0.0833333333333   0.000578703703704
      266     0.0833333333333      0.833333333333     0.0833333333333   0.000578703703704
      267      0.166666666667      0.833333333333     0.0833333333333   0.000578703703704
      268                0.25      0.833333333333     0.0833333333333   0.000578703703704
      269      0.333333333333      0.833333333333     0.0833333333333   0.000578703703704
      270      0.416666666667      0.833333333333     0.0833333333333   0.000578703703704
      271                 0.5      0.833333333333     0.0833333333333   0.000578703703704
      272      0.583333333333      0.833333333333     0.0833333333333   0.000578703703704
      273      0.666666666667      0.833333333333     0.0833333333333   0.000578703703704
      274                0.75      0.833333333333     0.0833333333333   0.000578703703704
      275      0.833333333333      0.833333333333     0.0833333333333   0.000578703703704
      276      0.916666666667      0.833333333333     0.0833333333333   0.000578703703704
      277                   0      0.916666666667     0.0833333333333   0.000578703703704
      278     0.0833333333333      0.916666666667     0.0833333333333   0.000578703703704
      279      0.166666666667      0.916666666667     0.0833333333333   0.000578703703704
      280                0.25      0.916666666667     0.0833333333333   0.000578703703704
      281      0.333333333333      0.916666666667     0.0833333333333   0.000578703703704
      282      0.416666666667      0.916666666667     0.0833333333333   0.000578703703704
      283                 0.5      0.916666666667     0.0833333333333   0.000578703703704
      284      0.583333333333      0.916666666667     0.0833333333333   0.000578703703704
      285      0.666666666667      0.916666666667     0.0833333333333   0.000578703703704
      286                0.75      0.916666666667     0.0833333333333   0.000578703703704
      287      0.833333333333      0.916666666667     0.0833333333333   0.000578703703704
      288      0.916666666667      0.916666666667     0.0833333333333   0.000578703703704
      289                   0                   0      0.166666666667   0.000578703703704
      290     0.0833333333333                   0      0.166666666667   0.000578703703704
      291      0.166666666667                   0      0.166666666667   0.000578703703704
      292                0.25                   0      0.166666666667   0.000578703703704
      293      0.333333333333                   0      0.166666666667   0.000578703703704
      294      0.416666666667                   0      0.166666666667   0.000578703703704
      295                 0.5                   0      0.166666666667   0.000578703703704
      296      0.583333333333                   0      0.166666666667   0.000578703703704
      297      0.666666666667                   0      0.166666666667   0.000578703703704
      298                0.75                   0      0.166666666667   0.000578703703704
      299      0.833333333333                   0      0.166666666667   0.000578703703704
      300      0.916666666667                   0      0.166666666667   0.000578703703704
      301                   0     0.0833333333333      0.166666666667   0.000578703703704
      302     0.0833333333333     0.0833333333333      0.166666666667   0.000578703703704
      303      0.166666666667     0.0833333333333      0.166666666667   0.000578703703704
      304                0.25     0.0833333333333      0.166666666667   0.000578703703704
      305      0.333333333333     0.0833333333333      0.166666666667   0.000578703703704
      306      0.416666666667     0.0833333333333      0.166666666667   0.000578703703704
      307                 0.5     0.0833333333333      0.166666666667   0.000578703703704
      308      0.583333333333     0.0833333333333      0.166666666667   0.000578703703704
      309      0.666666666667     0.0833333333333      0.166666666667   0.000578703703704
      310                0.75     0.0833333333333      0.166666666667   0.000578703703704
      311      0.833333333333     0.0833333333333      0.166666666667   0.000578703703704
      312      0.916666666667     0.0833333333333      0.166666666667   0.000578703703704
      313                   0      0.166666666667      0.166666666667   0.000578703703704
      314     0.0833333333333      0.166666666667      0.166666666667   0.000578703703704
      315      0.166666666667      0.166666666667      0.166666666667   0.000578703703704
      316                0.25      0.166666666667      0.166666666667   0.000578703703704
      317      0.333333333333      0.166666666667      0.166666666667   0.000578703703704
      318      0.416666666667      0.166666666667      0.166666666667   0.000578703703704
      319                 0.5      0.166666666667      0.166666666667   0.000578703703704
      320      0.583333333333      0.166666666667      0.166666666667   0.000578703703704
      321      0.666666666667      0.166666666667      0.166666666667   0.000578703703704
      322                0.75      0.166666666667      0.166666666667   0.000578703703704
      323      0.833333333333      0.166666666667      0.166666666667   0.000578703703704
      324      0.916666666667      0.166666666667      0.166666666667   0.000578703703704
      325                   0                0.25      0.166666666667   0.000578703703704
      326     0.0833333333333                0.25      0.166666666667   0.000578703703704
      327      0.166666666667                0.25      0.166666666667   0.000578703703704
      328                0.25                0.25      0.166666666667   0.000578703703704
      329      0.333333333333                0.25      0.166666666667   0.000578703703704
      330      0.416666666667                0.25      0.166666666667   0.000578703703704
      331                 0.5                0.25      0.166666666667   0.000578703703704
      332      0.583333333333                0.25      0.166666666667   0.000578703703704
      333      0.666666666667                0.25      0.166666666667   0.000578703703704
      334                0.75                0.25      0.166666666667   0.000578703703704
      335      0.833333333333                0.25      0.166666666667   0.000578703703704
      336      0.916666666667                0.25      0.166666666667   0.000578703703704
      337                   0      0.333333333333      0.166666666667   0.000578703703704
      338     0.0833333333333      0.333333333333      0.166666666667   0.000578703703704
      339      0.166666666667      0.333333333333      0.166666666667   0.000578703703704
      340                0.25      0.333333333333      0.166666666667   0.000578703703704
      341      0.333333333333      0.333333333333      0.166666666667   0.000578703703704
      342      0.416666666667      0.333333333333      0.166666666667   0.000578703703704
      343                 0.5      0.333333333333      0.166666666667   0.000578703703704
      344      0.583333333333      0.333333333333      0.166666666667   0.000578703703704
      345      0.666666666667      0.333333333333      0.166666666667   0.000578703703704
      346                0.75      0.333333333333      0.166666666667   0.000578703703704
      347      0.833333333333      0.333333333333      0.166666666667   0.000578703703704
      348      0.916666666667      0.333333333333      0.166666666667   0.000578703703704
      349                   0      0.416666666667      0.166666666667   0.000578703703704
      350     0.0833333333333      0.416666666667      0.166666666667   0.000578703703704
      351      0.166666666667      0.416666666667      0.166666666667   0.000578703703704
      352                0.25      0.416666666667      0.166666666667   0.000578703703704
      353      0.333333333333      0.416666666667      0.166666666667   0.000578703703704
      354      0.416666666667      0.416666666667      0.166666666667   0.000578703703704
      355                 0.5      0.416666666667      0.166666666667   0.000578703703704
      356      0.583333333333      0.416666666667      0.166666666667   0.000578703703704
      357      0.666666666667      0.416666666667      0.166666666667   0.000578703703704
      358                0.75      0.416666666667      0.166666666667   0.000578703703704
      359      0.833333333333      0.416666666667      0.166666666667   0.000578703703704
      360      0.916666666667      0.416666666667      0.166666666667   0.000578703703704
      361                   0                 0.5      0.166666666667   0.000578703703704
      362     0.0833333333333                 0.5      0.166666666667   0.000578703703704
      363      0.166666666667                 0.5      0.166666666667   0.000578703703704
      364                0.25                 0.5      0.166666666667   0.000578703703704
      365      0.333333333333                 0.5      0.166666666667   0.000578703703704
      366      0.416666666667                 0.5      0.166666666667   0.000578703703704
      367                 0.5                 0.5      0.166666666667   0.000578703703704
      368      0.583333333333                 0.5      0.166666666667   0.000578703703704
      369      0.666666666667                 0.5      0.166666666667   0.000578703703704
      370                0.75                 0.5      0.166666666667   0.000578703703704
      371      0.833333333333                 0.5      0.166666666667   0.000578703703704
      372      0.916666666667                 0.5      0.166666666667   0.000578703703704
      373                   0      0.583333333333      0.166666666667   0.000578703703704
      374     0.0833333333333      0.583333333333      0.166666666667   0.000578703703704
      375      0.166666666667      0.583333333333      0.166666666667   0.000578703703704
      376                0.25      0.583333333333      0.166666666667   0.000578703703704
      377      0.333333333333      0.583333333333      0.166666666667   0.000578703703704
      378      0.416666666667      0.583333333333      0.166666666667   0.000578703703704
      379                 0.5      0.583333333333      0.166666666667   0.000578703703704
      380      0.583333333333      0.583333333333      0.166666666667   0.000578703703704
      381      0.666666666667      0.583333333333      0.166666666667   0.000578703703704
      382                0.75      0.583333333333      0.166666666667   0.000578703703704
      383      0.833333333333      0.583333333333      0.166666666667   0.000578703703704
      384      0.916666666667      0.583333333333      0.166666666667   0.000578703703704
      385                   0      0.666666666667      0.166666666667   0.000578703703704
      386     0.0833333333333      0.666666666667      0.166666666667   0.000578703703704
      387      0.166666666667      0.666666666667      0.166666666667   0.000578703703704
      388                0.25      0.666666666667      0.166666666667   0.000578703703704
      389      0.333333333333      0.666666666667      0.166666666667   0.000578703703704
      390      0.416666666667      0.666666666667      0.166666666667   0.000578703703704
      391                 0.5      0.666666666667      0.166666666667   0.000578703703704
      392      0.583333333333      0.666666666667      0.166666666667   0.000578703703704
      393      0.666666666667      0.666666666667      0.166666666667   0.000578703703704
      394                0.75      0.666666666667      0.166666666667   0.000578703703704
      395      0.833333333333      0.666666666667      0.166666666667   0.000578703703704
      396      0.916666666667      0.666666666667      0.166666666667   0.000578703703704
      397                   0                0.75      0.166666666667   0.000578703703704
      398     0.0833333333333                0.75      0.166666666667   0.000578703703704
      399      0.166666666667                0.75      0.166666666667   0.000578703703704
      400                0.25                0.75      0.166666666667   0.000578703703704
      401      0.333333333333                0.75      0.166666666667   0.000578703703704
      402      0.416666666667                0.75      0.166666666667   0.000578703703704
      403                 0.5                0.75      0.166666666667   0.000578703703704
      404      0.583333333333                0.75      0.166666666667   0.000578703703704
      405      0.666666666667                0.75      0.166666666667   0.000578703703704
      406                0.75                0.75      0.166666666667   0.000578703703704
      407      0.833333333333                0.75      0.166666666667   0.000578703703704
      408      0.916666666667                0.75      0.166666666667   0.000578703703704
      409                   0      0.833333333333      0.166666666667   0.000578703703704
      410     0.0833333333333      0.833333333333      0.166666666667   0.000578703703704
      411      0.166666666667      0.833333333333      0.166666666667   0.000578703703704
      412                0.25      0.833333333333      0.166666666667   0.000578703703704
      413      0.333333333333      0.833333333333      0.166666666667   0.000578703703704
      414      0.416666666667      0.833333333333      0.166666666667   0.000578703703704
      415                 0.5      0.833333333333      0.166666666667   0.000578703703704
      416      0.583333333333      0.833333333333      0.166666666667   0.000578703703704
      417      0.666666666667      0.833333333333      0.166666666667   0.000578703703704
      418                0.75      0.833333333333      0.166666666667   0.000578703703704
      419      0.833333333333      0.833333333333      0.166666666667   0.000578703703704
      420      0.916666666667      0.833333333333      0.166666666667   0.000578703703704
      421                   0      0.916666666667      0.166666666667   0.000578703703704
      422     0.0833333333333      0.916666666667      0.166666666667   0.000578703703704
      423      0.166666666667      0.916666666667      0.166666666667   0.000578703703704
      424                0.25      0.916666666667      0.166666666667   0.000578703703704
      425      0.333333333333      0.916666666667      0.166666666667   0.000578703703704
      426      0.416666666667      0.916666666667      0.166666666667   0.000578703703704
      427                 0.5      0.916666666667      0.166666666667   0.000578703703704
      428      0.583333333333      0.916666666667      0.166666666667   0.000578703703704
      429      0.666666666667      0.916666666667      0.166666666667   0.000578703703704
      430                0.75      0.916666666667      0.166666666667   0.000578703703704
      431      0.833333333333      0.916666666667      0.166666666667   0.000578703703704
      432      0.916666666667      0.916666666667      0.166666666667   0.000578703703704
      433                   0                   0                0.25   0.000578703703704
      434     0.0833333333333                   0                0.25   0.000578703703704
      435      0.166666666667                   0                0.25   0.000578703703704
      436                0.25                   0                0.25   0.000578703703704
      437      0.333333333333                   0                0.25   0.000578703703704
      438      0.416666666667                   0                0.25   0.000578703703704
      439                 0.5                   0                0.25   0.000578703703704
      440      0.583333333333                   0                0.25   0.000578703703704
      441      0.666666666667                   0                0.25   0.000578703703704
      442                0.75                   0                0.25   0.000578703703704
      443      0.833333333333                   0                0.25   0.000578703703704
      444      0.916666666667                   0                0.25   0.000578703703704
      445                   0     0.0833333333333                0.25   0.000578703703704
      446     0.0833333333333     0.0833333333333                0.25   0.000578703703704
      447      0.166666666667     0.0833333333333                0.25   0.000578703703704
      448                0.25     0.0833333333333                0.25   0.000578703703704
      449      0.333333333333     0.0833333333333                0.25   0.000578703703704
      450      0.416666666667     0.0833333333333                0.25   0.000578703703704
      451                 0.5     0.0833333333333                0.25   0.000578703703704
      452      0.583333333333     0.0833333333333                0.25   0.000578703703704
      453      0.666666666667     0.0833333333333                0.25   0.000578703703704
      454                0.75     0.0833333333333                0.25   0.000578703703704
      455      0.833333333333     0.0833333333333                0.25   0.000578703703704
      456      0.916666666667     0.0833333333333                0.25   0.000578703703704
      457                   0      0.166666666667                0.25   0.000578703703704
      458     0.0833333333333      0.166666666667                0.25   0.000578703703704
      459      0.166666666667      0.166666666667                0.25   0.000578703703704
      460                0.25      0.166666666667                0.25   0.000578703703704
      461      0.333333333333      0.166666666667                0.25   0.000578703703704
      462      0.416666666667      0.166666666667                0.25   0.000578703703704
      463                 0.5      0.166666666667                0.25   0.000578703703704
      464      0.583333333333      0.166666666667                0.25   0.000578703703704
      465      0.666666666667      0.166666666667                0.25   0.000578703703704
      466                0.75      0.166666666667                0.25   0.000578703703704
      467      0.833333333333      0.166666666667                0.25   0.000578703703704
      468      0.916666666667      0.166666666667                0.25   0.000578703703704
      469                   0                0.25                0.25   0.000578703703704
      470     0.0833333333333                0.25                0.25   0.000578703703704
      471      0.166666666667                0.25                0.25   0.000578703703704
      472                0.25                0.25                0.25   0.000578703703704
      473      0.333333333333                0.25                0.25   0.000578703703704
      474      0.416666666667                0.25                0.25   0.000578703703704
      475                 0.5                0.25                0.25   0.000578703703704
      476      0.583333333333                0.25                0.25   0.000578703703704
      477      0.666666666667                0.25                0.25   0.000578703703704
      478                0.75                0.25                0.25   0.000578703703704
      479      0.833333333333                0.25                0.25   0.000578703703704
      480      0.916666666667                0.25                0.25   0.000578703703704
      481                   0      0.333333333333                0.25   0.000578703703704
      482     0.0833333333333      0.333333333333                0.25   0.000578703703704
      483      0.166666666667      0.333333333333                0.25   0.000578703703704
      484                0.25      0.333333333333                0.25   0.000578703703704
      485      0.333333333333      0.333333333333                0.25   0.000578703703704
      486      0.416666666667      0.333333333333                0.25   0.000578703703704
      487                 0.5      0.333333333333                0.25   0.000578703703704
      488      0.583333333333      0.333333333333                0.25   0.000578703703704
      489      0.666666666667      0.333333333333                0.25   0.000578703703704
      490                0.75      0.333333333333                0.25   0.000578703703704
      491      0.833333333333      0.333333333333                0.25   0.000578703703704
      492      0.916666666667      0.333333333333                0.25   0.000578703703704
      493                   0      0.416666666667                0.25   0.000578703703704
      494     0.0833333333333      0.416666666667                0.25   0.000578703703704
      495      0.166666666667      0.416666666667                0.25   0.000578703703704
      496                0.25      0.416666666667                0.25   0.000578703703704
      497      0.333333333333      0.416666666667                0.25   0.000578703703704
      498      0.416666666667      0.416666666667                0.25   0.000578703703704
      499                 0.5      0.416666666667                0.25   0.000578703703704
      500      0.583333333333      0.416666666667                0.25   0.000578703703704
      501      0.666666666667      0.416666666667                0.25   0.000578703703704
      502                0.75      0.416666666667                0.25   0.000578703703704
      503      0.833333333333      0.416666666667                0.25   0.000578703703704
      504      0.916666666667      0.416666666667                0.25   0.000578703703704
      505                   0                 0.5                0.25   0.000578703703704
      506     0.0833333333333                 0.5                0.25   0.000578703703704
      507      0.166666666667                 0.5                0.25   0.000578703703704
      508                0.25                 0.5                0.25   0.000578703703704
      509      0.333333333333                 0.5                0.25   0.000578703703704
      510      0.416666666667                 0.5                0.25   0.000578703703704
      511                 0.5                 0.5                0.25   0.000578703703704
      512      0.583333333333                 0.5                0.25   0.000578703703704
      513      0.666666666667                 0.5                0.25   0.000578703703704
      514                0.75                 0.5                0.25   0.000578703703704
      515      0.833333333333                 0.5                0.25   0.000578703703704
      516      0.916666666667                 0.5                0.25   0.000578703703704
      517                   0      0.583333333333                0.25   0.000578703703704
      518     0.0833333333333      0.583333333333                0.25   0.000578703703704
      519      0.166666666667      0.583333333333                0.25   0.000578703703704
      520                0.25      0.583333333333                0.25   0.000578703703704
      521      0.333333333333      0.583333333333                0.25   0.000578703703704
      522      0.416666666667      0.583333333333                0.25   0.000578703703704
      523                 0.5      0.583333333333                0.25   0.000578703703704
      524      0.583333333333      0.583333333333                0.25   0.000578703703704
      525      0.666666666667      0.583333333333                0.25   0.000578703703704
      526                0.75      0.583333333333                0.25   0.000578703703704
      527      0.833333333333      0.583333333333                0.25   0.000578703703704
      528      0.916666666667      0.583333333333                0.25   0.000578703703704
      529                   0      0.666666666667                0.25   0.000578703703704
      530     0.0833333333333      0.666666666667                0.25   0.000578703703704
      531      0.166666666667      0.666666666667                0.25   0.000578703703704
      532                0.25      0.666666666667                0.25   0.000578703703704
      533      0.333333333333      0.666666666667                0.25   0.000578703703704
      534      0.416666666667      0.666666666667                0.25   0.000578703703704
      535                 0.5      0.666666666667                0.25   0.000578703703704
      536      0.583333333333      0.666666666667                0.25   0.000578703703704
      537      0.666666666667      0.666666666667                0.25   0.000578703703704
      538                0.75      0.666666666667                0.25   0.000578703703704
      539      0.833333333333      0.666666666667                0.25   0.000578703703704
      540      0.916666666667      0.666666666667                0.25   0.000578703703704
      541                   0                0.75                0.25   0.000578703703704
      542     0.0833333333333                0.75                0.25   0.000578703703704
      543      0.166666666667                0.75                0.25   0.000578703703704
      544                0.25                0.75                0.25   0.000578703703704
      545      0.333333333333                0.75                0.25   0.000578703703704
      546      0.416666666667                0.75                0.25   0.000578703703704
      547                 0.5                0.75                0.25   0.000578703703704
      548      0.583333333333                0.75                0.25   0.000578703703704
      549      0.666666666667                0.75                0.25   0.000578703703704
      550                0.75                0.75                0.25   0.000578703703704
      551      0.833333333333                0.75                0.25   0.000578703703704
      552      0.916666666667                0.75                0.25   0.000578703703704
      553                   0      0.833333333333                0.25   0.000578703703704
      554     0.0833333333333      0.833333333333                0.25   0.000578703703704
      555      0.166666666667      0.833333333333                0.25   0.000578703703704
      556                0.25      0.833333333333                0.25   0.000578703703704
      557      0.333333333333      0.833333333333                0.25   0.000578703703704
      558      0.416666666667      0.833333333333                0.25   0.000578703703704
      559                 0.5      0.833333333333                0.25   0.000578703703704
      560      0.583333333333      0.833333333333                0.25   0.000578703703704
      561      0.666666666667      0.833333333333                0.25   0.000578703703704
      562                0.75      0.833333333333                0.25   0.000578703703704
      563      0.833333333333      0.833333333333                0.25   0.000578703703704
      564      0.916666666667      0.833333333333                0.25   0.000578703703704
      565                   0      0.916666666667                0.25   0.000578703703704
      566     0.0833333333333      0.916666666667                0.25   0.000578703703704
      567      0.166666666667      0.916666666667                0.25   0.000578703703704
      568                0.25      0.916666666667                0.25   0.000578703703704
      569      0.333333333333      0.916666666667                0.25   0.000578703703704
      570      0.416666666667      0.916666666667                0.25   0.000578703703704
      571                 0.5      0.916666666667                0.25   0.000578703703704
      572      0.583333333333      0.916666666667                0.25   0.000578703703704
      573      0.666666666667      0.916666666667                0.25   0.000578703703704
      574                0.75      0.916666666667                0.25   0.000578703703704
      575      0.833333333333      0.916666666667                0.25   0.000578703703704
      576      0.916666666667      0.916666666667                0.25   0.000578703703704
      577                   0                   0      0.333333333333   0.000578703703704
      578     0.0833333333333                   0      0.333333333333   0.000578703703704
      579      0.166666666667                   0      0.333333333333   0.000578703703704
      580                0.25                   0      0.333333333333   0.000578703703704
      581      0.333333333333                   0      0.333333333333   0.000578703703704
      582      0.416666666667                   0      0.333333333333   0.000578703703704
      583                 0.5                   0      0.333333333333   0.000578703703704
      584      0.583333333333                   0      0.333333333333   0.000578703703704
      585      0.666666666667                   0      0.333333333333   0.000578703703704
      586                0.75                   0      0.333333333333   0.000578703703704
      587      0.833333333333                   0      0.333333333333   0.000578703703704
      588      0.916666666667                   0      0.333333333333   0.000578703703704
      589                   0     0.0833333333333      0.333333333333   0.000578703703704
      590     0.0833333333333     0.0833333333333      0.333333333333   0.000578703703704
      591      0.166666666667     0.0833333333333      0.333333333333   0.000578703703704
      592                0.25     0.0833333333333      0.333333333333   0.000578703703704
      593      0.333333333333     0.0833333333333      0.333333333333   0.000578703703704
      594      0.416666666667     0.0833333333333      0.333333333333   0.000578703703704
      595                 0.5     0.0833333333333      0.333333333333   0.000578703703704
      596      0.583333333333     0.0833333333333      0.333333333333   0.000578703703704
      597      0.666666666667     0.0833333333333      0.333333333333   0.000578703703704
      598                0.75     0.0833333333333      0.333333333333   0.000578703703704
      599      0.833333333333     0.0833333333333      0.333333333333   0.000578703703704
      600      0.916666666667     0.0833333333333      0.333333333333   0.000578703703704
      601                   0      0.166666666667      0.333333333333   0.000578703703704
      602     0.0833333333333      0.166666666667      0.333333333333   0.000578703703704
      603      0.166666666667      0.166666666667      0.333333333333   0.000578703703704
      604                0.25      0.166666666667      0.333333333333   0.000578703703704
      605      0.333333333333      0.166666666667      0.333333333333   0.000578703703704
      606      0.416666666667      0.166666666667      0.333333333333   0.000578703703704
      607                 0.5      0.166666666667      0.333333333333   0.000578703703704
      608      0.583333333333      0.166666666667      0.333333333333   0.000578703703704
      609      0.666666666667      0.166666666667      0.333333333333   0.000578703703704
      610                0.75      0.166666666667      0.333333333333   0.000578703703704
      611      0.833333333333      0.166666666667      0.333333333333   0.000578703703704
      612      0.916666666667      0.166666666667      0.333333333333   0.000578703703704
      613                   0                0.25      0.333333333333   0.000578703703704
      614     0.0833333333333                0.25      0.333333333333   0.000578703703704
      615      0.166666666667                0.25      0.333333333333   0.000578703703704
      616                0.25                0.25      0.333333333333   0.000578703703704
      617      0.333333333333                0.25      0.333333333333   0.000578703703704
      618      0.416666666667                0.25      0.333333333333   0.000578703703704
      619                 0.5                0.25      0.333333333333   0.000578703703704
      620      0.583333333333                0.25      0.333333333333   0.000578703703704
      621      0.666666666667                0.25      0.333333333333   0.000578703703704
      622                0.75                0.25      0.333333333333   0.000578703703704
      623      0.833333333333                0.25      0.333333333333   0.000578703703704
      624      0.916666666667                0.25      0.333333333333   0.000578703703704
      625                   0      0.333333333333      0.333333333333   0.000578703703704
      626     0.0833333333333      0.333333333333      0.333333333333   0.000578703703704
      627      0.166666666667      0.333333333333      0.333333333333   0.000578703703704
      628                0.25      0.333333333333      0.333333333333   0.000578703703704
      629      0.333333333333      0.333333333333      0.333333333333   0.000578703703704
      630      0.416666666667      0.333333333333      0.333333333333   0.000578703703704
      631                 0.5      0.333333333333      0.333333333333   0.000578703703704
      632      0.583333333333      0.333333333333      0.333333333333   0.000578703703704
      633      0.666666666667      0.333333333333      0.333333333333   0.000578703703704
      634                0.75      0.333333333333      0.333333333333   0.000578703703704
      635      0.833333333333      0.333333333333      0.333333333333   0.000578703703704
      636      0.916666666667      0.333333333333      0.333333333333   0.000578703703704
      637                   0      0.416666666667      0.333333333333   0.000578703703704
      638     0.0833333333333      0.416666666667      0.333333333333   0.000578703703704
      639      0.166666666667      0.416666666667      0.333333333333   0.000578703703704
      640                0.25      0.416666666667      0.333333333333   0.000578703703704
      641      0.333333333333      0.416666666667      0.333333333333   0.000578703703704
      642      0.416666666667      0.416666666667      0.333333333333   0.000578703703704
      643                 0.5      0.416666666667      0.333333333333   0.000578703703704
      644      0.583333333333      0.416666666667      0.333333333333   0.000578703703704
      645      0.666666666667      0.416666666667      0.333333333333   0.000578703703704
      646                0.75      0.416666666667      0.333333333333   0.000578703703704
      647      0.833333333333      0.416666666667      0.333333333333   0.000578703703704
      648      0.916666666667      0.416666666667      0.333333333333   0.000578703703704
      649                   0                 0.5      0.333333333333   0.000578703703704
      650     0.0833333333333                 0.5      0.333333333333   0.000578703703704
      651      0.166666666667                 0.5      0.333333333333   0.000578703703704
      652                0.25                 0.5      0.333333333333   0.000578703703704
      653      0.333333333333                 0.5      0.333333333333   0.000578703703704
      654      0.416666666667                 0.5      0.333333333333   0.000578703703704
      655                 0.5                 0.5      0.333333333333   0.000578703703704
      656      0.583333333333                 0.5      0.333333333333   0.000578703703704
      657      0.666666666667                 0.5      0.333333333333   0.000578703703704
      658                0.75                 0.5      0.333333333333   0.000578703703704
      659      0.833333333333                 0.5      0.333333333333   0.000578703703704
      660      0.916666666667                 0.5      0.333333333333   0.000578703703704
      661                   0      0.583333333333      0.333333333333   0.000578703703704
      662     0.0833333333333      0.583333333333      0.333333333333   0.000578703703704
      663      0.166666666667      0.583333333333      0.333333333333   0.000578703703704
      664                0.25      0.583333333333      0.333333333333   0.000578703703704
      665      0.333333333333      0.583333333333      0.333333333333   0.000578703703704
      666      0.416666666667      0.583333333333      0.333333333333   0.000578703703704
      667                 0.5      0.583333333333      0.333333333333   0.000578703703704
      668      0.583333333333      0.583333333333      0.333333333333   0.000578703703704
      669      0.666666666667      0.583333333333      0.333333333333   0.000578703703704
      670                0.75      0.583333333333      0.333333333333   0.000578703703704
      671      0.833333333333      0.583333333333      0.333333333333   0.000578703703704
      672      0.916666666667      0.583333333333      0.333333333333   0.000578703703704
      673                   0      0.666666666667      0.333333333333   0.000578703703704
      674     0.0833333333333      0.666666666667      0.333333333333   0.000578703703704
      675      0.166666666667      0.666666666667      0.333333333333   0.000578703703704
      676                0.25      0.666666666667      0.333333333333   0.000578703703704
      677      0.333333333333      0.666666666667      0.333333333333   0.000578703703704
      678      0.416666666667      0.666666666667      0.333333333333   0.000578703703704
      679                 0.5      0.666666666667      0.333333333333   0.000578703703704
      680      0.583333333333      0.666666666667      0.333333333333   0.000578703703704
      681      0.666666666667      0.666666666667      0.333333333333   0.000578703703704
      682                0.75      0.666666666667      0.333333333333   0.000578703703704
      683      0.833333333333      0.666666666667      0.333333333333   0.000578703703704
      684      0.916666666667      0.666666666667      0.333333333333   0.000578703703704
      685                   0                0.75      0.333333333333   0.000578703703704
      686     0.0833333333333                0.75      0.333333333333   0.000578703703704
      687      0.166666666667                0.75      0.333333333333   0.000578703703704
      688                0.25                0.75      0.333333333333   0.000578703703704
      689      0.333333333333                0.75      0.333333333333   0.000578703703704
      690      0.416666666667                0.75      0.333333333333   0.000578703703704
      691                 0.5                0.75      0.333333333333   0.000578703703704
      692      0.583333333333                0.75      0.333333333333   0.000578703703704
      693      0.666666666667                0.75      0.333333333333   0.000578703703704
      694                0.75                0.75      0.333333333333   0.000578703703704
      695      0.833333333333                0.75      0.333333333333   0.000578703703704
      696      0.916666666667                0.75      0.333333333333   0.000578703703704
      697                   0      0.833333333333      0.333333333333   0.000578703703704
      698     0.0833333333333      0.833333333333      0.333333333333   0.000578703703704
      699      0.166666666667      0.833333333333      0.333333333333   0.000578703703704
      700                0.25      0.833333333333      0.333333333333   0.000578703703704
      701      0.333333333333      0.833333333333      0.333333333333   0.000578703703704
      702      0.416666666667      0.833333333333      0.333333333333   0.000578703703704
      703                 0.5      0.833333333333      0.333333333333   0.000578703703704
      704      0.583333333333      0.833333333333      0.333333333333   0.000578703703704
      705      0.666666666667      0.833333333333      0.333333333333   0.000578703703704
      706                0.75      0.833333333333      0.333333333333   0.000578703703704
      707      0.833333333333      0.833333333333      0.333333333333   0.000578703703704
      708      0.916666666667      0.833333333333      0.333333333333   0.000578703703704
      709                   0      0.916666666667      0.333333333333   0.000578703703704
      710     0.0833333333333      0.916666666667      0.333333333333   0.000578703703704
      711      0.166666666667      0.916666666667      0.333333333333   0.000578703703704
      712                0.25      0.916666666667      0.333333333333   0.000578703703704
      713      0.333333333333      0.916666666667      0.333333333333   0.000578703703704
      714      0.416666666667      0.916666666667      0.333333333333   0.000578703703704
      715                 0.5      0.916666666667      0.333333333333   0.000578703703704
      716      0.583333333333      0.916666666667      0.333333333333   0.000578703703704
      717      0.666666666667      0.916666666667      0.333333333333   0.000578703703704
      718                0.75      0.916666666667      0.333333333333   0.000578703703704
      719      0.833333333333      0.916666666667      0.333333333333   0.000578703703704
      720      0.916666666667      0.916666666667      0.333333333333   0.000578703703704
      721                   0                   0      0.416666666667   0.000578703703704
      722     0.0833333333333                   0      0.416666666667   0.000578703703704
      723      0.166666666667                   0      0.416666666667   0.000578703703704
      724                0.25                   0      0.416666666667   0.000578703703704
      725      0.333333333333                   0      0.416666666667   0.000578703703704
      726      0.416666666667                   0      0.416666666667   0.000578703703704
      727                 0.5                   0      0.416666666667   0.000578703703704
      728      0.583333333333                   0      0.416666666667   0.000578703703704
      729      0.666666666667                   0      0.416666666667   0.000578703703704
      730                0.75                   0      0.416666666667   0.000578703703704
      731      0.833333333333                   0      0.416666666667   0.000578703703704
      732      0.916666666667                   0      0.416666666667   0.000578703703704
      733                   0     0.0833333333333      0.416666666667   0.000578703703704
      734     0.0833333333333     0.0833333333333      0.416666666667   0.000578703703704
      735      0.166666666667     0.0833333333333      0.416666666667   0.000578703703704
      736                0.25     0.0833333333333      0.416666666667   0.000578703703704
      737      0.333333333333     0.0833333333333      0.416666666667   0.000578703703704
      738      0.416666666667     0.0833333333333      0.416666666667   0.000578703703704
      739                 0.5     0.0833333333333      0.416666666667   0.000578703703704
      740      0.583333333333     0.0833333333333      0.416666666667   0.000578703703704
      741      0.666666666667     0.0833333333333      0.416666666667   0.000578703703704
      742                0.75     0.0833333333333      0.416666666667   0.000578703703704
      743      0.833333333333     0.0833333333333      0.416666666667   0.000578703703704
      744      0.916666666667     0.0833333333333      0.416666666667   0.000578703703704
      745                   0      0.166666666667      0.416666666667   0.000578703703704
      746     0.0833333333333      0.166666666667      0.416666666667   0.000578703703704
      747      0.166666666667      0.166666666667      0.416666666667   0.000578703703704
      748                0.25      0.166666666667      0.416666666667   0.000578703703704
      749      0.333333333333      0.166666666667      0.416666666667   0.000578703703704
      750      0.416666666667      0.166666666667      0.416666666667   0.000578703703704
      751                 0.5      0.166666666667      0.416666666667   0.000578703703704
      752      0.583333333333      0.166666666667      0.416666666667   0.000578703703704
      753      0.666666666667      0.166666666667      0.416666666667   0.000578703703704
      754                0.75      0.166666666667      0.416666666667   0.000578703703704
      755      0.833333333333      0.166666666667      0.416666666667   0.000578703703704
      756      0.916666666667      0.166666666667      0.416666666667   0.000578703703704
      757                   0                0.25      0.416666666667   0.000578703703704
      758     0.0833333333333                0.25      0.416666666667   0.000578703703704
      759      0.166666666667                0.25      0.416666666667   0.000578703703704
      760                0.25                0.25      0.416666666667   0.000578703703704
      761      0.333333333333                0.25      0.416666666667   0.000578703703704
      762      0.416666666667                0.25      0.416666666667   0.000578703703704
      763                 0.5                0.25      0.416666666667   0.000578703703704
      764      0.583333333333                0.25      0.416666666667   0.000578703703704
      765      0.666666666667                0.25      0.416666666667   0.000578703703704
      766                0.75                0.25      0.416666666667   0.000578703703704
      767      0.833333333333                0.25      0.416666666667   0.000578703703704
      768      0.916666666667                0.25      0.416666666667   0.000578703703704
      769                   0      0.333333333333      0.416666666667   0.000578703703704
      770     0.0833333333333      0.333333333333      0.416666666667   0.000578703703704
      771      0.166666666667      0.333333333333      0.416666666667   0.000578703703704
      772                0.25      0.333333333333      0.416666666667   0.000578703703704
      773      0.333333333333      0.333333333333      0.416666666667   0.000578703703704
      774      0.416666666667      0.333333333333      0.416666666667   0.000578703703704
      775                 0.5      0.333333333333      0.416666666667   0.000578703703704
      776      0.583333333333      0.333333333333      0.416666666667   0.000578703703704
      777      0.666666666667      0.333333333333      0.416666666667   0.000578703703704
      778                0.75      0.333333333333      0.416666666667   0.000578703703704
      779      0.833333333333      0.333333333333      0.416666666667   0.000578703703704
      780      0.916666666667      0.333333333333      0.416666666667   0.000578703703704
      781                   0      0.416666666667      0.416666666667   0.000578703703704
      782     0.0833333333333      0.416666666667      0.416666666667   0.000578703703704
      783      0.166666666667      0.416666666667      0.416666666667   0.000578703703704
      784                0.25      0.416666666667      0.416666666667   0.000578703703704
      785      0.333333333333      0.416666666667      0.416666666667   0.000578703703704
      786      0.416666666667      0.416666666667      0.416666666667   0.000578703703704
      787                 0.5      0.416666666667      0.416666666667   0.000578703703704
      788      0.583333333333      0.416666666667      0.416666666667   0.000578703703704
      789      0.666666666667      0.416666666667      0.416666666667   0.000578703703704
      790                0.75      0.416666666667      0.416666666667   0.000578703703704
      791      0.833333333333      0.416666666667      0.416666666667   0.000578703703704
      792      0.916666666667      0.416666666667      0.416666666667   0.000578703703704
      793                   0                 0.5      0.416666666667   0.000578703703704
      794     0.0833333333333                 0.5      0.416666666667   0.000578703703704
      795      0.166666666667                 0.5      0.416666666667   0.000578703703704
      796                0.25                 0.5      0.416666666667   0.000578703703704
      797      0.333333333333                 0.5      0.416666666667   0.000578703703704
      798      0.416666666667                 0.5      0.416666666667   0.000578703703704
      799                 0.5                 0.5      0.416666666667   0.000578703703704
      800      0.583333333333                 0.5      0.416666666667   0.000578703703704
      801      0.666666666667                 0.5      0.416666666667   0.000578703703704
      802                0.75                 0.5      0.416666666667   0.000578703703704
      803      0.833333333333                 0.5      0.416666666667   0.000578703703704
      804      0.916666666667                 0.5      0.416666666667   0.000578703703704
      805                   0      0.583333333333      0.416666666667   0.000578703703704
      806     0.0833333333333      0.583333333333      0.416666666667   0.000578703703704
      807      0.166666666667      0.583333333333      0.416666666667   0.000578703703704
      808                0.25      0.583333333333      0.416666666667   0.000578703703704
      809      0.333333333333      0.583333333333      0.416666666667   0.000578703703704
      810      0.416666666667      0.583333333333      0.416666666667   0.000578703703704
      811                 0.5      0.583333333333      0.416666666667   0.000578703703704
[...]
                                     nloc = 91
                                     nloc = 91
                                     nloc = 91
                                     nloc = 91
                                     nloc = 91
                                     nloc = 91
                                     nloc = 91
                                     nloc = 91
                                     nloc = 91
                                     nloc = 91
                                     nloc = 91
                                     nloc = 91
                                     nloc = 91
                                     nloc = 91
                                     nloc = 91
                                     nloc = 91
                                     nloc = 91
                                     nloc = 91
                                     nloc = 91
                                     nloc = 91
                                     nloc = 91
                                     nloc = 91
                                     nloc = 91
                                     nloc = 91
                                     nloc = 91
                                     nloc = 91
                                     nloc = 91
                                     nloc = 91
                                     nloc = 91
                                     nloc = 91
                                     nloc = 91
                                     nloc = 91
                                     nloc = 91
                                     nloc = 91
                                     nloc = 91
                                     nloc = 91
                                     nloc = 91
                                     nloc = 91
                                     nloc = 91
                                     nloc = 91
                                     nloc = 91
                                     nloc = 91
                                     nloc = 91
                                     nloc = 91
                                     nloc = 91
                                     nloc = 91
                                     nloc = 91
                                     nloc = 91
                                     nloc = 91
                                     nloc = 91
                                     nloc = 91
                                     nloc = 91
                                     nloc = 91
                                     nloc = 91
                                     nloc = 91
                                     nloc = 91
                                     nloc = 91
                                     nloc = 91
                                     nloc = 91
                                     nloc = 91
                                     nloc = 91
                                     nloc = 91
                                     nloc = 91
                                     nloc = 91
                                     nloc = 91
                                     nloc = 91
                                     nloc = 91
                                     nloc = 91
                                     nloc = 91
                                     nloc = 91
                                     nloc = 91
                                     nloc = 91
                                     nloc = 91
                                     nloc = 91
                                     nloc = 91
                                     nloc = 91
                                     nloc = 91
                                     nloc = 91
                                     nloc = 91
                                     nloc = 91
                                     nloc = 91
                                     nloc = 91
                                     nloc = 91
                                     nloc = 91
                                     nloc = 91
                                     nloc = 91
                                     nloc = 91
                                     nloc = 91
                                     nloc = 91
                                     nloc = 91
                                     nloc = 91
                                     nloc = 91
                                     nloc = 91
                                     nloc = 91
                                     nloc = 91
                                     nloc = 91
                                     nloc = 91
                                     nloc = 91
                                     nloc = 91
                                     nloc = 91
                                     nloc = 91
                                     nloc = 91
                                     nloc = 91
                                     nloc = 91
                                     nloc = 91
                                     nloc = 91
                                     nloc = 91
                                     nloc = 91
                                     nloc = 91
                                     nloc = 91
                                     nloc = 91
                                     nloc = 91
                                     nloc = 91
                                     nloc = 91
                                     nloc = 91
                                     nloc = 91
                                     nloc = 91
                                     nloc = 91
                                     nloc = 91
                                     nloc = 91
                                     nloc = 91
                                     nloc = 91
                                     nloc = 91
                                     nloc = 91
                                     nloc = 91
                                     nloc = 91
                                     nloc = 91
                                     nloc = 91
                                     nloc = 91
                                     nloc = 91
                                     nloc = 91
                                     nloc = 91
                                     nloc = 91
                                     nloc = 91
                                     nloc = 91
                                     nloc = 91
                                     nloc = 91
                                     nloc = 91
                                     nloc = 91
                                     nloc = 91
                                     nloc = 91
                                     nloc = 91
                                     nloc = 91
                                     nloc = 91
                                     nloc = 91
                                     nloc = 91
                                     nloc = 91
                                     nloc = 91
                                     nloc = 91
                                     nloc = 91
                                     nloc = 91
                                     nloc = 91
                                     nloc = 91
                                     nloc = 91
                                     nloc = 91
                                     nloc = 91
                                     nloc = 91
                                     nloc = 91
                                     nloc = 91
                                     nloc = 91
                                     nloc = 91
                                     nloc = 91
                                     nloc = 91
                                     nloc = 91
                                     nloc = 91
                                     nloc = 91
                                     nloc = 91
                                     nloc = 91
                                     nloc = 91
                                     nloc = 91
                                     nloc = 91
                                     nloc = 91
                                     nloc = 91
                                     nloc = 91
                                     nloc = 91
                                     nloc = 91
                                     nloc = 91
                                     nloc = 91
                                     nloc = 91
                                     nloc = 91
                                     nloc = 91
                                     nloc = 91
                                     nloc = 91
                                     nloc = 91
                                     nloc = 91
                                     nloc = 91
                                     nloc = 91
                                     nloc = 91
                                     nloc = 91
                                     nloc = 91
                                     nloc = 91
                                     nloc = 91
                                     nloc = 91
                                     nloc = 91
                                     nloc = 91
                                     nloc = 91
                                     nloc = 91
                                     nloc = 91
                                     nloc = 91
                                     nloc = 91
                                     nloc = 91
                                     nloc = 91
                                     nloc = 91
                                     nloc = 91
                                     nloc = 91
                                     nloc = 91
                                     nloc = 91
                                     nloc = 91
                                     nloc = 91
                                     nloc = 91
                                     nloc = 91
                                     nloc = 91
                                     nloc = 91
                                     nloc = 91
                                     nloc = 91
                                     nloc = 91
                                     nloc = 91
                                     nloc = 91
                                     nloc = 91
                                     nloc = 91
                                     nloc = 91
                                     nloc = 91
                                     nloc = 91
                                     nloc = 91
                                     nloc = 91
                                     nloc = 91
                                     nloc = 91
                                     nloc = 91
                                     nloc = 91
                                     nloc = 91
                                     nloc = 91
                                     nloc = 91
                                     nloc = 91
                                     nloc = 91
                                     nloc = 91
                                     nloc = 91
                                     nloc = 91
                                     nloc = 91
                                     nloc = 91
                                     nloc = 91
                                     nloc = 91
                                     nloc = 91
                                     nloc = 91
                                     nloc = 91
                                     nloc = 91
                                     nloc = 91
                                     nloc = 91
                                     nloc = 91
                                     nloc = 91
                                     nloc = 91
                                     nloc = 91
                                     nloc = 91
                                     nloc = 91
                                     nloc = 91
                                     nloc = 91
                                     nloc = 91
                                     nloc = 91
                                     nloc = 91
                                     nloc = 91
                                     nloc = 91
                                     nloc = 91
                                     nloc = 91
                                     nloc = 91
                                     nloc = 91
                                     nloc = 91
                                     nloc = 91
                                     nloc = 91
                                     nloc = 91
                                     nloc = 91
                                     nloc = 91
                                     nloc = 91
                                     nloc = 91
                                     nloc = 91
                                     nloc = 91
                                     nloc = 91
                                     nloc = 91
                                     nloc = 91
                                     nloc = 91
                                     nloc = 91
                                     nloc = 91
                                     nloc = 91
                                     nloc = 91
                                     nloc = 91
                                     nloc = 91
                                     nloc = 91
                                     nloc = 91
                                     nloc = 91
                                     nloc = 91
                                     nloc = 91
                                     nloc = 91
                                     nloc = 91
                                     nloc = 91
                                     nloc = 91
                                     nloc = 91
                                     nloc = 91
                                     nloc = 91
                                     nloc = 91
                                     nloc = 91
                                     nloc = 91
                                     nloc = 91
                                     nloc = 91
                                     nloc = 91
                                     nloc = 91
                                     nloc = 91
                                     nloc = 91
                                     nloc = 91
                                     nloc = 91
                                     nloc = 91
                                     nloc = 91
                                     nloc = 91
                                     nloc = 91
                                     nloc = 91
                                     nloc = 91
                                     nloc = 91
                                     nloc = 91
                                     nloc = 91
                                     nloc = 91
                                     nloc = 91
                                     nloc = 91
                                     nloc = 91
                                     nloc = 91
                                     nloc = 91
                                     nloc = 91
                                     nloc = 91
                                     nloc = 91
                                     nloc = 91
                                     nloc = 91
                                     nloc = 91
                                     nloc = 91
                                     nloc = 91
                                     nloc = 91
                                     nloc = 91
                                     nloc = 91
                                     nloc = 91
                                     nloc = 91
                                     nloc = 91
                                     nloc = 91
                                     nloc = 91
                                     nloc = 91
                                     nloc = 91
                                     nloc = 91
                                     nloc = 91
                                     nloc = 91
                                     nloc = 91
                                     nloc = 91
                                     nloc = 91
                                     nloc = 91
                                     nloc = 91
                                     nloc = 91
                                     nloc = 91
                                     nloc = 91
                                     nloc = 91
                                     nloc = 91
                                     nloc = 91

 OUTPUT DOS FILE IN: OUT.ABACUS/DOS1
                    min state energy (eV) = -5.5
                    max state energy (eV) = 17.2
               delta energy interval (eV) = 0.01
                          number of bands = 8
                        sum up the states = 8

 OUTPUT DOS FILE IN: OUT.ABACUS/DOS2
                    min state energy (eV) = -5.5
                    max state energy (eV) = 17.2
               delta energy interval (eV) = 0.01
                          number of bands = 8
                        sum up the states = 8
 Fermi energy (spin = 1) is 0 Rydberg
 Fermi energy (spin = 2) is 0 Rydberg




  |CLASS_NAME---------|NAME---------------|TIME(Sec)-----|CALLS----|AVG------|PER%-------
                                      total         25.327        11       2.3     1e+02%
               Run_lcao           lcao_line         25.313         1        25     1e+02%
            ORB_control      set_orb_tables         0.5527         1      0.55       2.2%
         ORB_gen_tables          gen_tables        0.55269         1      0.55       2.2%
          ORB_table_phi          init_Table         0.3417         1      0.34       1.3%
          ORB_table_phi      cal_ST_Phi12_R        0.33725        70    0.0048       1.3%
              LOOP_ions            opt_ions          24.56         1        25        97%
              LOOP_elec     solve_elec_stru         14.669         1        15        58%
            Grid_Driver           Find_atom        0.37401     20762   1.8e-05       1.5%
              LOOP_elec              solver         14.561         1        15        57%
          ELEC_cbands_k           cal_bands         14.461         1        14        57%
                 Gint_k              vlocal         0.5726         2      0.29       2.3%
             Efficience              each_k         13.731      3456     0.004        54%
             Efficience                 H_k         6.8256      3456     0.002        27%
            LCAO_Hamilt        calculate_Hk          6.822      3456     0.002        27%
                 Gint_k        folding_vl_k        0.83575      3456   0.00024       3.3%
                 Gint_k              Distri         0.3367      3456   9.7e-05       1.3%
               LCAO_nnr      folding_fixedH         11.969      6912    0.0017        47%
             Efficience             diago_k         6.9018      3456     0.002        27%
      Diago_LCAO_Matrix          elpa_solve         6.6958      3456    0.0019        26%
      Local_Orbital_wfc      wfc_2d_to_grid        0.17796      3456   5.1e-05       0.7%
 ----------------------------------------------------------------------------------------

 CLASS_NAME---------|NAME---------------|MEMORY(MB)--------
                                         282.8
        ORB_table_phi               Jl(x)           97.8
             PW_Basis                 igk          2.874
        init_meshball        meshball_pos          1.337
        Grid_Meshcell        index2normal          1.253
        Grid_Meshcell         index2ucell          1.253
        ORB_table_phi         Table_SR&TR          1.225
 ----------------------------------------------------------

 Start  Time  : Wed Jul  6 15:44:55 2022
 Finish Time  : Wed Jul  6 15:45:21 2022
 Total  Time  : 0 h 0 mins 26 secs 
