 
             +---------------------------------------------------+
             |                                                   |
             |                   WANNIER90                       |
             |                                                   |
             +---------------------------------------------------+
             |                                                   |
             |        Welcome to the Maximally-Localized         |
             |        Generalized Wannier Functions code         |
             |            http://www.wannier.org                 |
             |                                                   |
             |                                                   |
             |  Wannier90 Developer Group:                       |
             |    Giovanni Pizzi    (EPFL)                       |
             |    Valerio Vitale    (Cambridge)                  |
             |    David Vanderbilt  (Rutgers University)         |
             |    Nicola Marzari    (EPFL)                       |
             |    Ivo Souza         (Universidad del Pais Vasco) |
             |    Arash A. Mostofi  (Imperial College London)    |
             |    Jonathan R. Yates (University of Oxford)       |
             |                                                   |
             |  For the full list of Wannier90 3.x authors,      |
             |  please check the code documentation and the      |
             |  README on the GitHub page of the code            |
             |                                                   |
             |                                                   |
             |  Please cite                                      |
             |                                                   |
             |  [ref] "An updated version of Wannier90:          |
             |        A Tool for Obtaining Maximally Localised   |
             |        Wannier Functions", A. A. Mostofi,         |
             |        J. R. Yates, G. Pizzi, Y. S. Lee,          |
             |        I. Souza, D. Vanderbilt and N. Marzari,    |
             |        Comput. Phys. Commun. 185, 2309 (2014)     |
             |        http://dx.doi.org/10.1016/j.cpc.2014.05.003|
             |                                                   |
             |  in any publications arising from the use of      |
             |  this code. For the method please cite            |
             |                                                   |
             |  [ref] "Maximally Localized Generalised Wannier   |
             |         Functions for Composite Energy Bands"     |
             |         N. Marzari and D. Vanderbilt              |
             |         Phys. Rev. B 56 12847 (1997)              |
             |                                                   |
             |  [ref] "Maximally Localized Wannier Functions     |
             |         for Entangled Energy Bands"               |
             |         I. Souza, N. Marzari and D. Vanderbilt    |
             |         Phys. Rev. B 65 035109 (2001)             |
             |                                                   |
             |                                                   |
             | Copyright (c) 1996-2019                           |
             |        The Wannier90 Developer Group and          |
             |        individual contributors                    |
             |                                                   |
             |      Release: 3.0.0       27th February 2019      |
             |                                                   |
             | This program is free software; you can            |
             | redistribute it and/or modify it under the terms  |
             | of the GNU General Public License as published by |
             | the Free Software Foundation; either version 2 of |
             | the License, or (at your option) any later version|
             |                                                   |
             | This program is distributed in the hope that it   |
             | will be useful, but WITHOUT ANY WARRANTY; without |
             | even the implied warranty of MERCHANTABILITY or   |
             | FITNESS FOR A PARTICULAR PURPOSE. See the GNU     |
             | General Public License for more details.          |
             |                                                   |
             | You should have received a copy of the GNU General|
             | Public License along with this program; if not,   |
             | write to the Free Software Foundation, Inc.,      |
             | 675 Mass Ave, Cambridge, MA 02139, USA.           |
             |                                                   |
             +---------------------------------------------------+
             |    Execution started on 23Sep2022 at 16:25:02     |
             +---------------------------------------------------+
 
 ******************************************************************************
 * -> Using CODATA 2006 constant values                                       *
 *    (http://physics.nist.gov/cuu/Constants/index.html)                      *
 * -> Using Bohr value from CODATA                                            *
 ******************************************************************************
 

 Running in serial (with serial executable)
 
                                    ------
                                    SYSTEM
                                    ------
 
                              Lattice Vectors (Ang)
                    a_1     3.841000   0.000000   0.000000
                    a_2     0.000000   3.841000   0.000000
                    a_3     0.000000   0.000000   3.841000
 
                   Unit Cell Volume:      56.66735  (Ang^3)
 
                        Reciprocal-Space Vectors (Ang^-1)
                    b_1     1.635820   0.000000   0.000000
                    b_2     0.000000   1.635820   0.000000
                    b_3     0.000000   0.000000   1.635820
  
 *----------------------------------------------------------------------------*
 |   Site       Fractional Coordinate          Cartesian Coordinate (Ang)     |
 +----------------------------------------------------------------------------+
 | Sr   1   0.00000   0.00000   0.00000   |    0.00000   0.00000   0.00000    |
 | V    1   0.50000   0.50000   0.50000   |    1.92050   1.92050   1.92050    |
 | O    1   0.50000   0.50000   0.00000   |    1.92050   1.92050   0.00000    |
 | O    2   0.50000   0.00000   0.50000   |    1.92050   0.00000   1.92050    |
 | O    3   0.00000   0.50000   0.50000   |    0.00000   1.92050   1.92050    |
 *----------------------------------------------------------------------------*
                                ------------
                                K-POINT GRID
                                ------------
  
             Grid size = 20 x 20 x 20      Total points = 8000
  
  
 *---------------------------------- MAIN ------------------------------------*
 |  Number of Wannier Functions               :                 3             |
 |  Number of Objective Wannier Functions     :                 3             |
 |  Number of input Bloch states              :                64             |
 |  Output verbosity (1=low, 5=high)          :                 1             |
 |  Timing Level (1=low, 5=high)              :                 1             |
 |  Optimisation (0=memory, 3=speed)          :                 3             |
 |  Length Unit                               :               Ang             |
 |  Post-processing setup (write *.nnkp)      :                 F             |
 |  Using Gamma-only branch of algorithms     :                 F             |
 *----------------------------------------------------------------------------*
 *------------------------------- WANNIERISE ---------------------------------*
 |  Total number of iterations                :               100             |
 |  Number of CG steps before reset           :                 5             |
 |  Trial step length for line search         :             2.000             |
 |  Convergence tolerence                     :         0.100E-09             |
 |  Convergence window                        :                -1             |
 |  Iterations between writing output         :                 1             |
 |  Iterations between backing up to disk     :               100             |
 |  Write r^2_nm to file                      :                 F             |
 |  Write xyz WF centres to file              :                 F             |
 |  Write on-site energies <0n|H|0n> to file  :                 F             |
 |  Use guiding centre to control phases      :                 F             |
 |  Use phases for initial projections        :                 F             |
 *----------------------------------------------------------------------------*
 *------------------------------- DISENTANGLE --------------------------------*
 |  Using band disentanglement                :                 T             |
 |  Total number of iterations                :               200             |
 |  Mixing ratio                              :             0.500             |
 |  Convergence tolerence                     :         1.000E-10             |
 |  Convergence window                        :                 3             |
 *----------------------------------------------------------------------------*
 *-------------------------------- PLOTTING ----------------------------------*
 |  Plotting interpolated bandstructure       :                 T             |
 |   Number of K-path sections                :                 4             |
 |   Divisions along first K-path section     :               100             |
 |   Output format                            :           gnuplot             |
 |   Output mode                              :               s-k             |
 *----------------------------------------------------------------------------*
 |   K-space path sections:                                                   |
 |    From: R       0.500  0.500  0.500     To: G       0.000  0.000  0.000   |
 |    From: G       0.000  0.000  0.000     To: X       0.500  0.000  0.000   |
 |    From: X       0.500  0.000  0.000     To: M       0.500  0.500  0.000   |
 |    From: M       0.500  0.500  0.000     To: G       0.000  0.000  0.000   |
 *----------------------------------------------------------------------------*
 |  Plotting Hamiltonian in WF basis          :                 T             |
 *----------------------------------------------------------------------------*
 Time to read parameters        0.707 (sec)

 *---------------------------------- K-MESH ----------------------------------*
 +----------------------------------------------------------------------------+
 |                    Distance to Nearest-Neighbour Shells                    |
 |                    ------------------------------------                    |
 |          Shell             Distance (Ang^-1)          Multiplicity         |
 |          -----             -----------------          ------------         |
 |             1                   0.081791                      6            |
 |             2                   0.115670                     12            |
 |             3                   0.141666                      8            |
 |             4                   0.163582                      6            |
 |             5                   0.182890                     24            |
 |             6                   0.200346                     24            |
 |             7                   0.231340                     12            |
 |             8                   0.245373                     30            |
 |             9                   0.258646                     24            |
 |            10                   0.271270                     24            |
 |            11                   0.283332                      8            |
 |            12                   0.294902                     24            |
 |            13                   0.306034                     48            |
 |            14                   0.327164                      6            |
 |            15                   0.337233                     48            |
 |            16                   0.347010                     36            |
 |            17                   0.356519                     24            |
 |            18                   0.365781                     24            |
 |            19                   0.374813                     48            |
 |            20                   0.383634                     24            |
 |            21                   0.400692                     24            |
 |            22                   0.408955                     30            |
 |            23                   0.417054                     72            |
 |            24                   0.424999                     32            |
 |            25                   0.440458                     72            |
 |            26                   0.447988                     48            |
 |            27                   0.462680                     12            |
 |            28                   0.469854                     48            |
 |            29                   0.476919                     48            |
 |            30                   0.483882                     48            |
 |            31                   0.490746                     30            |
 |            32                   0.497515                     24            |
 |            33                   0.504194                     72            |
 |            34                   0.517292                     24            |
 |            35                   0.523718                     96            |
 |            36                   0.530066                     48            |
 +----------------------------------------------------------------------------+
 | The b-vectors are chosen automatically                                     |
 | The following shells are used:   1                                         |
 +----------------------------------------------------------------------------+
 |                        Shell   # Nearest-Neighbours                        |
 |                        -----   --------------------                        |
 |                          1               6                                 |
 +----------------------------------------------------------------------------+
 | Completeness relation is fully satisfied [Eq. (B1), PRB 56, 12847 (1997)]  |
 +----------------------------------------------------------------------------+
 |                  b_k Vectors (Ang^-1) and Weights (Ang^2)                  |
 |                  ----------------------------------------                  |
 |            No.         b_k(x)      b_k(y)      b_k(z)        w_b           |
 |            ---        --------------------------------     --------        |
 |             1         0.081791    0.000000    0.000000    74.740995        |
 |             2        -0.081791    0.000000    0.000000    74.740995        |
 |             3         0.000000    0.081791    0.000000    74.740995        |
 |             4         0.000000   -0.081791    0.000000    74.740995        |
 |             5         0.000000    0.000000    0.081791    74.740995        |
 |             6         0.000000    0.000000   -0.081791    74.740995        |
 +----------------------------------------------------------------------------+
 |                           b_k Directions (Ang^-1)                          |
 |                           -----------------------                          |
 |            No.           x           y           z                         |
 |            ---        --------------------------------                     |
 |             1         0.081791    0.000000    0.000000                     |
 |             2         0.000000    0.081791    0.000000                     |
 |             3         0.000000    0.000000    0.081791                     |
 +----------------------------------------------------------------------------+
  
 Time to get kmesh              4.046 (sec)
 *============================================================================*
 |                              MEMORY ESTIMATE                               |
 |         Maximum RAM allocated during each phase of the calculation         |
 *============================================================================*
 |                        Disentanglement         4063.22 Mb                  |
 |                            Wannierise:           53.23 Mb                  |
 |                          plot_wannier:           53.23 Mb                  |
 *----------------------------------------------------------------------------*
  
 Starting a new Wannier90 calculation ...


 Reading overlaps from wannier90.mmn    : File generated by VASP: InSb

 Reading projections from wannier90.amn : File generated by VASP: InSb

 Time to read overlaps        126.944 (sec)

 *------------------------------- DISENTANGLE --------------------------------*
 +----------------------------------------------------------------------------+
 |                              Energy  Windows                               |
 |                              ---------------                               |
 |                   Outer:    5.00000  to    7.90000  (eV)                   |
 |                   No frozen states were specified                          |
 +----------------------------------------------------------------------------+
   Number of target bands to extract:    3

                   Unitarised projection of Wannier functions                  
                   ------------------------------------------                  
   A_mn = <psi_m|g_n> --> S = A.A^+ --> U = S^-1/2.A
   In dis_project... done
   No inner window (linner = F)

                   Extraction of optimally-connected subspace                  
                   ------------------------------------------                  
 +---------------------------------------------------------------------+<-- DIS
 |  Iter     Omega_I(i-1)      Omega_I(i)      Delta (frac.)    Time   |<-- DIS
 +---------------------------------------------------------------------+<-- DIS
       1       5.89964994       5.89375550       1.000E-03      0.00    <-- DIS
       2       5.89654747       5.89266058       6.596E-04      0.24    <-- DIS
       3       5.89451115       5.89199538       4.270E-04      0.43    <-- DIS
       4       5.89319500       5.89157689       2.746E-04      0.62    <-- DIS
       5       5.89234902       5.89131134       1.761E-04      0.81    <-- DIS
       6       5.89180665       5.89114197       1.128E-04      1.00    <-- DIS
       7       5.89145925       5.89103348       7.227E-05      1.19    <-- DIS
       8       5.89123669       5.89096374       4.633E-05      1.39    <-- DIS
       9       5.89109398       5.89091876       2.974E-05      1.58    <-- DIS
      10       5.89100234       5.89088965       1.913E-05      1.77    <-- DIS
      11       5.89094338       5.89087074       1.233E-05      1.95    <-- DIS
      12       5.89090536       5.89085842       7.967E-06      2.14    <-- DIS
      13       5.89088078       5.89085037       5.162E-06      2.33    <-- DIS
      14       5.89086484       5.89084508       3.355E-06      2.52    <-- DIS
      15       5.89085448       5.89084160       2.187E-06      2.71    <-- DIS
      16       5.89084772       5.89083930       1.430E-06      2.89    <-- DIS
      17       5.89084330       5.89083777       9.390E-07      3.08    <-- DIS
      18       5.89084039       5.89083675       6.186E-07      3.27    <-- DIS
      19       5.89083848       5.89083607       4.091E-07      3.46    <-- DIS
      20       5.89083721       5.89083561       2.716E-07      3.65    <-- DIS
      21       5.89083637       5.89083530       1.811E-07      3.83    <-- DIS
      22       5.89083581       5.89083509       1.212E-07      4.02    <-- DIS
      23       5.89083543       5.89083495       8.142E-08      4.21    <-- DIS
      24       5.89083518       5.89083485       5.492E-08      4.40    <-- DIS
      25       5.89083501       5.89083479       3.720E-08      4.59    <-- DIS
      26       5.89083489       5.89083474       2.529E-08      4.78    <-- DIS
      27       5.89083481       5.89083471       1.726E-08      4.97    <-- DIS
      28       5.89083476       5.89083469       1.182E-08      5.16    <-- DIS
      29       5.89083472       5.89083467       8.123E-09      5.35    <-- DIS
      30       5.89083469       5.89083466       5.601E-09      5.53    <-- DIS
      31       5.89083468       5.89083465       3.874E-09      5.72    <-- DIS
      32       5.89083466       5.89083465       2.688E-09      5.91    <-- DIS
      33       5.89083466       5.89083465       1.870E-09      6.10    <-- DIS
      34       5.89083465       5.89083464       1.304E-09      6.28    <-- DIS
      35       5.89083465       5.89083464       9.114E-10      6.47    <-- DIS
      36       5.89083464       5.89083464       6.385E-10      6.66    <-- DIS
      37       5.89083464       5.89083464       4.482E-10      6.85    <-- DIS
      38       5.89083464       5.89083464       3.152E-10      7.03    <-- DIS
      39       5.89083464       5.89083464       2.220E-10      7.22    <-- DIS
      40       5.89083464       5.89083464       1.566E-10      7.41    <-- DIS
      41       5.89083464       5.89083464       1.106E-10      7.60    <-- DIS
      42       5.89083464       5.89083464       7.823E-11      7.79    <-- DIS
      43       5.89083464       5.89083464       5.539E-11      7.97    <-- DIS
      44       5.89083464       5.89083464       3.926E-11      8.16    <-- DIS

             <<<      Delta < 1.000E-10  over  3 iterations     >>>
             <<< Disentanglement convergence criteria satisfied >>>

        Final Omega_I     5.89083464 (Ang^2)

 +----------------------------------------------------------------------------+

 Time to disentangle bands      9.409 (sec)

 done

 
 *------------------------------- WANNIERISE ---------------------------------*
 +--------------------------------------------------------------------+<-- CONV
 | Iter  Delta Spread     RMS Gradient      Spread (Ang^2)      Time  |<-- CONV
 +--------------------------------------------------------------------+<-- CONV
 
 ------------------------------------------------------------------------------
 Initial State
  WF centre and spread    1  (  1.920500,  1.920500,  1.920500 )     1.96574105
  WF centre and spread    2  (  1.920500,  1.920500,  1.920500 )     1.96574105
  WF centre and spread    3  (  1.920500,  1.920500,  1.920500 )     1.96574105
  Sum of centres and spreads (  5.761500,  5.761500,  5.761500 )     5.89722316
 
      0     0.590E+01     0.0000000000        5.8972231575       8.71  <-- CONV
        O_D=      0.0000000 O_OD=      0.0063885 O_TOT=      5.8972232 <-- SPRD
 ------------------------------------------------------------------------------
 Cycle:      1
  WF centre and spread    1  (  1.920500,  1.920500,  1.920500 )     1.96569930
  WF centre and spread    2  (  1.920500,  1.920500,  1.920500 )     1.96569930
  WF centre and spread    3  (  1.920500,  1.920500,  1.920500 )     1.96569930
  Sum of centres and spreads (  5.761500,  5.761500,  5.761500 )     5.89709790
 
      1    -0.125E-03     0.0026716799        5.8970978974       8.84  <-- CONV
        O_D=      0.0000000 O_OD=      0.0062633 O_TOT=      5.8970979 <-- SPRD
 Delta: O_D=  0.4217115E-11 O_OD= -0.1252601E-03 O_TOT= -0.1252601E-03 <-- DLTA
 ------------------------------------------------------------------------------
 Cycle:      2
  WF centre and spread    1  (  1.920500,  1.920500,  1.920500 )     1.96569258
  WF centre and spread    2  (  1.920500,  1.920500,  1.920500 )     1.96569258
  WF centre and spread    3  (  1.920500,  1.920500,  1.920500 )     1.96569258
  Sum of centres and spreads (  5.761500,  5.761500,  5.761500 )     5.89707773
 
      2    -0.202E-04     0.0024916420        5.8970777345       8.97  <-- CONV
        O_D=      0.0000000 O_OD=      0.0062431 O_TOT=      5.8970777 <-- SPRD
 Delta: O_D= -0.6131648E-12 O_OD= -0.2016284E-04 O_TOT= -0.2016284E-04 <-- DLTA
 ------------------------------------------------------------------------------
 Cycle:      3
  WF centre and spread    1  (  1.920500,  1.920500,  1.920500 )     1.96568923
  WF centre and spread    2  (  1.920500,  1.920500,  1.920500 )     1.96568923
  WF centre and spread    3  (  1.920500,  1.920500,  1.920500 )     1.96568923
  Sum of centres and spreads (  5.761500,  5.761500,  5.761500 )     5.89706769
 
      3    -0.100E-04     0.0018601455        5.8970676931       9.09  <-- CONV
        O_D=      0.0000000 O_OD=      0.0062331 O_TOT=      5.8970677 <-- SPRD
 Delta: O_D= -0.2819411E-11 O_OD= -0.1004138E-04 O_TOT= -0.1004138E-04 <-- DLTA
 ------------------------------------------------------------------------------
 Cycle:      4
  WF centre and spread    1  (  1.920500,  1.920500,  1.920500 )     1.96568816
  WF centre and spread    2  (  1.920500,  1.920500,  1.920500 )     1.96568816
  WF centre and spread    3  (  1.920500,  1.920500,  1.920500 )     1.96568817
  Sum of centres and spreads (  5.761500,  5.761500,  5.761500 )     5.89706449
 
      4    -0.320E-05     0.0010371237        5.8970644937       9.22  <-- CONV
        O_D=      0.0000000 O_OD=      0.0062299 O_TOT=      5.8970645 <-- SPRD
 Delta: O_D= -0.3189921E-12 O_OD= -0.3199439E-05 O_TOT= -0.3199439E-05 <-- DLTA
 ------------------------------------------------------------------------------
 Cycle:      5
  WF centre and spread    1  (  1.920500,  1.920500,  1.920500 )     1.96568768
  WF centre and spread    2  (  1.920500,  1.920500,  1.920500 )     1.96568768
  WF centre and spread    3  (  1.920500,  1.920500,  1.920500 )     1.96568768
  Sum of centres and spreads (  5.761500,  5.761500,  5.761500 )     5.89706304
 
      5    -0.145E-05     0.0006747914        5.8970630408       9.35  <-- CONV
        O_D=      0.0000000 O_OD=      0.0062284 O_TOT=      5.8970630 <-- SPRD
 Delta: O_D= -0.2979541E-12 O_OD= -0.1452900E-05 O_TOT= -0.1452900E-05 <-- DLTA
 ------------------------------------------------------------------------------
 Cycle:      6
  WF centre and spread    1  (  1.920500,  1.920500,  1.920500 )     1.96568749
  WF centre and spread    2  (  1.920500,  1.920500,  1.920500 )     1.96568749
  WF centre and spread    3  (  1.920500,  1.920500,  1.920500 )     1.96568749
  Sum of centres and spreads (  5.761500,  5.761500,  5.761500 )     5.89706248
 
      6    -0.562E-06     0.0004272140        5.8970624785       9.47  <-- CONV
        O_D=      0.0000000 O_OD=      0.0062278 O_TOT=      5.8970625 <-- SPRD
 Delta: O_D= -0.1202856E-12 O_OD= -0.5623128E-06 O_TOT= -0.5623129E-06 <-- DLTA
 ------------------------------------------------------------------------------
 Cycle:      7
  WF centre and spread    1  (  1.920500,  1.920500,  1.920500 )     1.96568744
  WF centre and spread    2  (  1.920500,  1.920500,  1.920500 )     1.96568744
  WF centre and spread    3  (  1.920500,  1.920500,  1.920500 )     1.96568744
  Sum of centres and spreads (  5.761500,  5.761500,  5.761500 )     5.89706231
 
      7    -0.172E-06     0.0002758442        5.8970623068       9.60  <-- CONV
        O_D=      0.0000000 O_OD=      0.0062277 O_TOT=      5.8970623 <-- SPRD
 Delta: O_D= -0.3167977E-13 O_OD= -0.1716896E-06 O_TOT= -0.1716896E-06 <-- DLTA
 ------------------------------------------------------------------------------
 Cycle:      8
  WF centre and spread    1  (  1.920500,  1.920500,  1.920500 )     1.96568739
  WF centre and spread    2  (  1.920500,  1.920500,  1.920500 )     1.96568739
  WF centre and spread    3  (  1.920500,  1.920500,  1.920500 )     1.96568739
  Sum of centres and spreads (  5.761500,  5.761500,  5.761500 )     5.89706217
 
      8    -0.138E-06     0.0001920315        5.8970621684       9.72  <-- CONV
        O_D=      0.0000000 O_OD=      0.0062275 O_TOT=      5.8970622 <-- SPRD
 Delta: O_D= -0.2785743E-13 O_OD= -0.1383885E-06 O_TOT= -0.1383885E-06 <-- DLTA
 ------------------------------------------------------------------------------
 Cycle:      9
  WF centre and spread    1  (  1.920500,  1.920500,  1.920500 )     1.96568736
  WF centre and spread    2  (  1.920500,  1.920500,  1.920500 )     1.96568736
  WF centre and spread    3  (  1.920500,  1.920500,  1.920500 )     1.96568737
  Sum of centres and spreads (  5.761500,  5.761500,  5.761500 )     5.89706210
 
      9    -0.730E-07     0.0001431103        5.8970620954       9.85  <-- CONV
        O_D=      0.0000000 O_OD=      0.0062275 O_TOT=      5.8970621 <-- SPRD
 Delta: O_D=  0.5059653E-13 O_OD= -0.7297447E-07 O_TOT= -0.7297442E-07 <-- DLTA
 ------------------------------------------------------------------------------
 Cycle:     10
  WF centre and spread    1  (  1.920500,  1.920500,  1.920500 )     1.96568736
  WF centre and spread    2  (  1.920500,  1.920500,  1.920500 )     1.96568736
  WF centre and spread    3  (  1.920500,  1.920500,  1.920500 )     1.96568737
  Sum of centres and spreads (  5.761500,  5.761500,  5.761500 )     5.89706210
 
     10    -0.184E-10     0.0001504950        5.8970620954       9.92  <-- CONV
        O_D=      0.0000000 O_OD=      0.0062275 O_TOT=      5.8970621 <-- SPRD
 Delta: O_D= -0.4686159E-16 O_OD= -0.1844049E-10 O_TOT= -0.1844125E-10 <-- DLTA
 ------------------------------------------------------------------------------
 Cycle:     11
  WF centre and spread    1  (  1.920500,  1.920500,  1.920500 )     1.96568735
  WF centre and spread    2  (  1.920500,  1.920500,  1.920500 )     1.96568735
  WF centre and spread    3  (  1.920500,  1.920500,  1.920500 )     1.96568735
  Sum of centres and spreads (  5.761500,  5.761500,  5.761500 )     5.89706204
 
     11    -0.509E-07     0.0001504738        5.8970620445      10.05  <-- CONV
        O_D=      0.0000000 O_OD=      0.0062274 O_TOT=      5.8970620 <-- SPRD
 Delta: O_D= -0.5872108E-13 O_OD= -0.5090049E-07 O_TOT= -0.5090055E-07 <-- DLTA
 ------------------------------------------------------------------------------
 Cycle:     12
  WF centre and spread    1  (  1.920500,  1.920500,  1.920500 )     1.96568735
  WF centre and spread    2  (  1.920500,  1.920500,  1.920500 )     1.96568735
  WF centre and spread    3  (  1.920500,  1.920500,  1.920500 )     1.96568735
  Sum of centres and spreads (  5.761500,  5.761500,  5.761500 )     5.89706204
 
     12    -0.672E-11     0.0000752938        5.8970620445      10.12  <-- CONV
        O_D=      0.0000000 O_OD=      0.0062274 O_TOT=      5.8970620 <-- SPRD
 Delta: O_D= -0.1917318E-16 O_OD= -0.6718084E-11 O_TOT= -0.6717293E-11 <-- DLTA
 ------------------------------------------------------------------------------
 Cycle:     13
  WF centre and spread    1  (  1.920500,  1.920500,  1.920500 )     1.96568735
  WF centre and spread    2  (  1.920500,  1.920500,  1.920500 )     1.96568735
  WF centre and spread    3  (  1.920500,  1.920500,  1.920500 )     1.96568735
  Sum of centres and spreads (  5.761500,  5.761500,  5.761500 )     5.89706204
 
     13    -0.632E-11     0.0000752837        5.8970620445      10.19  <-- CONV
        O_D=      0.0000000 O_OD=      0.0062274 O_TOT=      5.8970620 <-- SPRD
 Delta: O_D= -0.4079240E-16 O_OD= -0.6318323E-11 O_TOT= -0.6318501E-11 <-- DLTA
 ------------------------------------------------------------------------------
 Cycle:     14
  WF centre and spread    1  (  1.920500,  1.920500,  1.920500 )     1.96568734
  WF centre and spread    2  (  1.920500,  1.920500,  1.920500 )     1.96568734
  WF centre and spread    3  (  1.920500,  1.920500,  1.920500 )     1.96568735
  Sum of centres and spreads (  5.761500,  5.761500,  5.761500 )     5.89706203
 
     14    -0.123E-07     0.0000752644        5.8970620322      10.31  <-- CONV
        O_D=      0.0000000 O_OD=      0.0062274 O_TOT=      5.8970620 <-- SPRD
 Delta: O_D=  0.1638135E-14 O_OD= -0.1234181E-07 O_TOT= -0.1234181E-07 <-- DLTA
 ------------------------------------------------------------------------------
 Cycle:     15
  WF centre and spread    1  (  1.920500,  1.920500,  1.920500 )     1.96568734
  WF centre and spread    2  (  1.920500,  1.920500,  1.920500 )     1.96568734
  WF centre and spread    3  (  1.920500,  1.920500,  1.920500 )     1.96568735
  Sum of centres and spreads (  5.761500,  5.761500,  5.761500 )     5.89706203
 
     15    -0.342E-11     0.0000580781        5.8970620322      10.39  <-- CONV
        O_D=      0.0000000 O_OD=      0.0062274 O_TOT=      5.8970620 <-- SPRD
 Delta: O_D=  0.6672809E-17 O_OD= -0.3415170E-11 O_TOT= -0.3415046E-11 <-- DLTA
 ------------------------------------------------------------------------------
 Cycle:     16
  WF centre and spread    1  (  1.920500,  1.920500,  1.920500 )     1.96568734
  WF centre and spread    2  (  1.920500,  1.920500,  1.920500 )     1.96568734
  WF centre and spread    3  (  1.920500,  1.920500,  1.920500 )     1.96568735
  Sum of centres and spreads (  5.761500,  5.761500,  5.761500 )     5.89706203
 
     16    -0.717E-11     0.0000580799        5.8970620322      10.46  <-- CONV
        O_D=      0.0000000 O_OD=      0.0062274 O_TOT=      5.8970620 <-- SPRD
 Delta: O_D= -0.3614849E-16 O_OD= -0.7174611E-11 O_TOT= -0.7174705E-11 <-- DLTA
 ------------------------------------------------------------------------------
 Cycle:     17
  WF centre and spread    1  (  1.920500,  1.920500,  1.920500 )     1.96568734
  WF centre and spread    2  (  1.920500,  1.920500,  1.920500 )     1.96568734
  WF centre and spread    3  (  1.920500,  1.920500,  1.920500 )     1.96568734
  Sum of centres and spreads (  5.761500,  5.761500,  5.761500 )     5.89706202
 
     17    -0.120E-07     0.0000580653        5.8970620201      10.58  <-- CONV
        O_D=      0.0000000 O_OD=      0.0062274 O_TOT=      5.8970620 <-- SPRD
 Delta: O_D= -0.2210570E-13 O_OD= -0.1203783E-07 O_TOT= -0.1203786E-07 <-- DLTA
 ------------------------------------------------------------------------------
 Cycle:     18
  WF centre and spread    1  (  1.920500,  1.920500,  1.920500 )     1.96568734
  WF centre and spread    2  (  1.920500,  1.920500,  1.920500 )     1.96568734
  WF centre and spread    3  (  1.920500,  1.920500,  1.920500 )     1.96568734
  Sum of centres and spreads (  5.761500,  5.761500,  5.761500 )     5.89706202
 
     18    -0.189E-11     0.0000328561        5.8970620201      10.65  <-- CONV
        O_D=      0.0000000 O_OD=      0.0062274 O_TOT=      5.8970620 <-- SPRD
 Delta: O_D= -0.3297802E-17 O_OD= -0.1887469E-11 O_TOT= -0.1887379E-11 <-- DLTA
 ------------------------------------------------------------------------------
 Cycle:     19
  WF centre and spread    1  (  1.920500,  1.920500,  1.920500 )     1.96568734
  WF centre and spread    2  (  1.920500,  1.920500,  1.920500 )     1.96568734
  WF centre and spread    3  (  1.920500,  1.920500,  1.920500 )     1.96568734
  Sum of centres and spreads (  5.761500,  5.761500,  5.761500 )     5.89706202
 
     19    -0.120E-11     0.0000328543        5.8970620201      10.73  <-- CONV
        O_D=      0.0000000 O_OD=      0.0062274 O_TOT=      5.8970620 <-- SPRD
 Delta: O_D= -0.2087499E-16 O_OD= -0.1203320E-11 O_TOT= -0.1203482E-11 <-- DLTA
 ------------------------------------------------------------------------------
 Cycle:     20
  WF centre and spread    1  (  1.920500,  1.920500,  1.920500 )     1.96568734
  WF centre and spread    2  (  1.920500,  1.920500,  1.920500 )     1.96568734
  WF centre and spread    3  (  1.920500,  1.920500,  1.920500 )     1.96568734
  Sum of centres and spreads (  5.761500,  5.761500,  5.761500 )     5.89706202
 
     20    -0.169E-08     0.0000328472        5.8970620184      10.85  <-- CONV
        O_D=      0.0000000 O_OD=      0.0062274 O_TOT=      5.8970620 <-- SPRD
 Delta: O_D= -0.2058378E-13 O_OD= -0.1694628E-08 O_TOT= -0.1694648E-08 <-- DLTA
 ------------------------------------------------------------------------------
 Cycle:     21
  WF centre and spread    1  (  1.920500,  1.920500,  1.920500 )     1.96568734
  WF centre and spread    2  (  1.920500,  1.920500,  1.920500 )     1.96568734
  WF centre and spread    3  (  1.920500,  1.920500,  1.920500 )     1.96568734
  Sum of centres and spreads (  5.761500,  5.761500,  5.761500 )     5.89706202
 
     21    -0.141E-11     0.0000237281        5.8970620184      10.92  <-- CONV
        O_D=      0.0000000 O_OD=      0.0062274 O_TOT=      5.8970620 <-- SPRD
 Delta: O_D= -0.3324521E-17 O_OD= -0.1406292E-11 O_TOT= -0.1405986E-11 <-- DLTA
 ------------------------------------------------------------------------------
 Cycle:     22
  WF centre and spread    1  (  1.920500,  1.920500,  1.920500 )     1.96568734
  WF centre and spread    2  (  1.920500,  1.920500,  1.920500 )     1.96568734
  WF centre and spread    3  (  1.920500,  1.920500,  1.920500 )     1.96568734
  Sum of centres and spreads (  5.761500,  5.761500,  5.761500 )     5.89706202
 
     22    -0.203E-11     0.0000237243        5.8970620184      10.99  <-- CONV
        O_D=      0.0000000 O_OD=      0.0062274 O_TOT=      5.8970620 <-- SPRD
 Delta: O_D= -0.3697848E-17 O_OD= -0.2032985E-11 O_TOT= -0.2033040E-11 <-- DLTA
 ------------------------------------------------------------------------------
 Cycle:     23
  WF centre and spread    1  (  1.920500,  1.920500,  1.920500 )     1.96568734
  WF centre and spread    2  (  1.920500,  1.920500,  1.920500 )     1.96568734
  WF centre and spread    3  (  1.920500,  1.920500,  1.920500 )     1.96568734
  Sum of centres and spreads (  5.761500,  5.761500,  5.761500 )     5.89706202
 
     23    -0.266E-11     0.0000237194        5.8970620184      11.06  <-- CONV
        O_D=      0.0000000 O_OD=      0.0062274 O_TOT=      5.8970620 <-- SPRD
 Delta: O_D= -0.4063442E-17 O_OD= -0.2658848E-11 O_TOT= -0.2659206E-11 <-- DLTA
 ------------------------------------------------------------------------------
 Cycle:     24
  WF centre and spread    1  (  1.920500,  1.920500,  1.920500 )     1.96568734
  WF centre and spread    2  (  1.920500,  1.920500,  1.920500 )     1.96568734
  WF centre and spread    3  (  1.920500,  1.920500,  1.920500 )     1.96568734
  Sum of centres and spreads (  5.761500,  5.761500,  5.761500 )     5.89706202
 
     24    -0.328E-11     0.0000237134        5.8970620184      11.14  <-- CONV
        O_D=      0.0000000 O_OD=      0.0062274 O_TOT=      5.8970620 <-- SPRD
 Delta: O_D= -0.4420537E-17 O_OD= -0.3282795E-11 O_TOT= -0.3282707E-11 <-- DLTA
 ------------------------------------------------------------------------------
 Cycle:     25
  WF centre and spread    1  (  1.920500,  1.920500,  1.920500 )     1.96568734
  WF centre and spread    2  (  1.920500,  1.920500,  1.920500 )     1.96568734
  WF centre and spread    3  (  1.920500,  1.920500,  1.920500 )     1.96568734
  Sum of centres and spreads (  5.761500,  5.761500,  5.761500 )     5.89706202
 
     25    -0.627E-12     0.0000237063        5.8970620184      11.21  <-- CONV
        O_D=      0.0000000 O_OD=      0.0062274 O_TOT=      5.8970620 <-- SPRD
 Delta: O_D= -0.3784423E-18 O_OD= -0.6266437E-12 O_TOT= -0.6270540E-12 <-- DLTA
 ------------------------------------------------------------------------------
 Cycle:     26
  WF centre and spread    1  (  1.920500,  1.920500,  1.920500 )     1.96568734
  WF centre and spread    2  (  1.920500,  1.920500,  1.920500 )     1.96568734
  WF centre and spread    3  (  1.920500,  1.920500,  1.920500 )     1.96568734
  Sum of centres and spreads (  5.761500,  5.761500,  5.761500 )     5.89706202
 
     26    -0.125E-11     0.0000237052        5.8970620184      11.28  <-- CONV
        O_D=      0.0000000 O_OD=      0.0062274 O_TOT=      5.8970620 <-- SPRD
 Delta: O_D= -0.7561159E-18 O_OD= -0.1253323E-11 O_TOT= -0.1253220E-11 <-- DLTA
 ------------------------------------------------------------------------------
 Cycle:     27
  WF centre and spread    1  (  1.920500,  1.920500,  1.920500 )     1.96568734
  WF centre and spread    2  (  1.920500,  1.920500,  1.920500 )     1.96568734
  WF centre and spread    3  (  1.920500,  1.920500,  1.920500 )     1.96568734
  Sum of centres and spreads (  5.761500,  5.761500,  5.761500 )     5.89706202
 
     27    -0.188E-11     0.0000237030        5.8970620184      11.35  <-- CONV
        O_D=      0.0000000 O_OD=      0.0062274 O_TOT=      5.8970620 <-- SPRD
 Delta: O_D= -0.1132219E-17 O_OD= -0.1878479E-11 O_TOT= -0.1878497E-11 <-- DLTA
 ------------------------------------------------------------------------------
 Cycle:     28
  WF centre and spread    1  (  1.920500,  1.920500,  1.920500 )     1.96568734
  WF centre and spread    2  (  1.920500,  1.920500,  1.920500 )     1.96568734
  WF centre and spread    3  (  1.920500,  1.920500,  1.920500 )     1.96568734
  Sum of centres and spreads (  5.761500,  5.761500,  5.761500 )     5.89706202
 
     28    -0.250E-11     0.0000236997        5.8970620184      11.42  <-- CONV
        O_D=      0.0000000 O_OD=      0.0062274 O_TOT=      5.8970620 <-- SPRD
 Delta: O_D= -0.1505955E-17 O_OD= -0.2504540E-11 O_TOT= -0.2503775E-11 <-- DLTA
 ------------------------------------------------------------------------------
 Cycle:     29
  WF centre and spread    1  (  1.920500,  1.920500,  1.920500 )     1.96568734
  WF centre and spread    2  (  1.920500,  1.920500,  1.920500 )     1.96568734
  WF centre and spread    3  (  1.920500,  1.920500,  1.920500 )     1.96568734
  Sum of centres and spreads (  5.761500,  5.761500,  5.761500 )     5.89706202
 
     29    -0.313E-11     0.0000236953        5.8970620184      11.49  <-- CONV
        O_D=      0.0000000 O_OD=      0.0062274 O_TOT=      5.8970620 <-- SPRD
 Delta: O_D= -0.1876531E-17 O_OD= -0.3128980E-11 O_TOT= -0.3129053E-11 <-- DLTA
 ------------------------------------------------------------------------------
 Cycle:     30
  WF centre and spread    1  (  1.920500,  1.920500,  1.920500 )     1.96568734
  WF centre and spread    2  (  1.920500,  1.920500,  1.920500 )     1.96568734
  WF centre and spread    3  (  1.920500,  1.920500,  1.920500 )     1.96568734
  Sum of centres and spreads (  5.761500,  5.761500,  5.761500 )     5.89706202
 
     30    -0.375E-11     0.0000236899        5.8970620184      11.56  <-- CONV
        O_D=      0.0000000 O_OD=      0.0062274 O_TOT=      5.8970620 <-- SPRD
 Delta: O_D= -0.2243164E-17 O_OD= -0.3752014E-11 O_TOT= -0.3752554E-11 <-- DLTA
 ------------------------------------------------------------------------------
 Cycle:     31
  WF centre and spread    1  (  1.920500,  1.920500,  1.920500 )     1.96568734
  WF centre and spread    2  (  1.920500,  1.920500,  1.920500 )     1.96568734
  WF centre and spread    3  (  1.920500,  1.920500,  1.920500 )     1.96568734
  Sum of centres and spreads (  5.761500,  5.761500,  5.761500 )     5.89706202
 
     31    -0.625E-12     0.0000236833        5.8970620184      11.63  <-- CONV
        O_D=      0.0000000 O_OD=      0.0062274 O_TOT=      5.8970620 <-- SPRD
 Delta: O_D= -0.3707950E-18 O_OD= -0.6253401E-12 O_TOT= -0.6252776E-12 <-- DLTA
 ------------------------------------------------------------------------------
 Cycle:     32
  WF centre and spread    1  (  1.920500,  1.920500,  1.920500 )     1.96568734
  WF centre and spread    2  (  1.920500,  1.920500,  1.920500 )     1.96568734
  WF centre and spread    3  (  1.920500,  1.920500,  1.920500 )     1.96568734
  Sum of centres and spreads (  5.761500,  5.761500,  5.761500 )     5.89706202
 
     32    -0.125E-11     0.0000236822        5.8970620184      11.70  <-- CONV
        O_D=      0.0000000 O_OD=      0.0062274 O_TOT=      5.8970620 <-- SPRD
 Delta: O_D= -0.7408373E-18 O_OD= -0.1250729E-11 O_TOT= -0.1250555E-11 <-- DLTA
 ------------------------------------------------------------------------------
 Cycle:     33
  WF centre and spread    1  (  1.920500,  1.920500,  1.920500 )     1.96568734
  WF centre and spread    2  (  1.920500,  1.920500,  1.920500 )     1.96568734
  WF centre and spread    3  (  1.920500,  1.920500,  1.920500 )     1.96568734
  Sum of centres and spreads (  5.761500,  5.761500,  5.761500 )     5.89706202
 
     33    -0.187E-11     0.0000236800        5.8970620184      11.77  <-- CONV
        O_D=      0.0000000 O_OD=      0.0062274 O_TOT=      5.8970620 <-- SPRD
 Delta: O_D= -0.1109342E-17 O_OD= -0.1875341E-11 O_TOT= -0.1874945E-11 <-- DLTA
 ------------------------------------------------------------------------------
 Cycle:     34
  WF centre and spread    1  (  1.920500,  1.920500,  1.920500 )     1.96568734
  WF centre and spread    2  (  1.920500,  1.920500,  1.920500 )     1.96568734
  WF centre and spread    3  (  1.920500,  1.920500,  1.920500 )     1.96568734
  Sum of centres and spreads (  5.761500,  5.761500,  5.761500 )     5.89706202
 
     34    -0.250E-11     0.0000236767        5.8970620184      11.84  <-- CONV
        O_D=      0.0000000 O_OD=      0.0062274 O_TOT=      5.8970620 <-- SPRD
 Delta: O_D= -0.1475529E-17 O_OD= -0.2499501E-11 O_TOT= -0.2500222E-11 <-- DLTA
 ------------------------------------------------------------------------------
 Cycle:     35
  WF centre and spread    1  (  1.920500,  1.920500,  1.920500 )     1.96568734
  WF centre and spread    2  (  1.920500,  1.920500,  1.920500 )     1.96568734
  WF centre and spread    3  (  1.920500,  1.920500,  1.920500 )     1.96568734
  Sum of centres and spreads (  5.761500,  5.761500,  5.761500 )     5.89706202
 
     35    -0.312E-11     0.0000236724        5.8970620184      11.91  <-- CONV
        O_D=      0.0000000 O_OD=      0.0062274 O_TOT=      5.8970620 <-- SPRD
 Delta: O_D= -0.1838621E-17 O_OD= -0.3122840E-11 O_TOT= -0.3122835E-11 <-- DLTA
 ------------------------------------------------------------------------------
 Cycle:     36
  WF centre and spread    1  (  1.920500,  1.920500,  1.920500 )     1.96568734
  WF centre and spread    2  (  1.920500,  1.920500,  1.920500 )     1.96568734
  WF centre and spread    3  (  1.920500,  1.920500,  1.920500 )     1.96568734
  Sum of centres and spreads (  5.761500,  5.761500,  5.761500 )     5.89706202
 
     36    -0.374E-11     0.0000236670        5.8970620184      11.98  <-- CONV
        O_D=      0.0000000 O_OD=      0.0062274 O_TOT=      5.8970620 <-- SPRD
 Delta: O_D= -0.2197854E-17 O_OD= -0.3744882E-11 O_TOT= -0.3744560E-11 <-- DLTA
 ------------------------------------------------------------------------------
 Cycle:     37
  WF centre and spread    1  (  1.920500,  1.920500,  1.920500 )     1.96568734
  WF centre and spread    2  (  1.920500,  1.920500,  1.920500 )     1.96568734
  WF centre and spread    3  (  1.920500,  1.920500,  1.920500 )     1.96568734
  Sum of centres and spreads (  5.761500,  5.761500,  5.761500 )     5.89706202
 
     37    -0.624E-12     0.0000236604        5.8970620184      12.05  <-- CONV
        O_D=      0.0000000 O_OD=      0.0062274 O_TOT=      5.8970620 <-- SPRD
 Delta: O_D= -0.3633039E-18 O_OD= -0.6240763E-12 O_TOT= -0.6243894E-12 <-- DLTA
 ------------------------------------------------------------------------------
 Cycle:     38
  WF centre and spread    1  (  1.920500,  1.920500,  1.920500 )     1.96568734
  WF centre and spread    2  (  1.920500,  1.920500,  1.920500 )     1.96568734
  WF centre and spread    3  (  1.920500,  1.920500,  1.920500 )     1.96568734
  Sum of centres and spreads (  5.761500,  5.761500,  5.761500 )     5.89706202
 
     38    -0.125E-11     0.0000236594        5.8970620184      12.13  <-- CONV
        O_D=      0.0000000 O_OD=      0.0062274 O_TOT=      5.8970620 <-- SPRD
 Delta: O_D= -0.7258715E-18 O_OD= -0.1248465E-11 O_TOT= -0.1247891E-11 <-- DLTA
 ------------------------------------------------------------------------------
 Cycle:     39
  WF centre and spread    1  (  1.920500,  1.920500,  1.920500 )     1.96568734
  WF centre and spread    2  (  1.920500,  1.920500,  1.920500 )     1.96568734
  WF centre and spread    3  (  1.920500,  1.920500,  1.920500 )     1.96568734
  Sum of centres and spreads (  5.761500,  5.761500,  5.761500 )     5.89706202
 
     39    -0.187E-11     0.0000236572        5.8970620184      12.20  <-- CONV
        O_D=      0.0000000 O_OD=      0.0062274 O_TOT=      5.8970620 <-- SPRD
 Delta: O_D= -0.1086933E-17 O_OD= -0.1871634E-11 O_TOT= -0.1872280E-11 <-- DLTA
 ------------------------------------------------------------------------------
 Cycle:     40
  WF centre and spread    1  (  1.920500,  1.920500,  1.920500 )     1.96568734
  WF centre and spread    2  (  1.920500,  1.920500,  1.920500 )     1.96568734
  WF centre and spread    3  (  1.920500,  1.920500,  1.920500 )     1.96568734
  Sum of centres and spreads (  5.761500,  5.761500,  5.761500 )     5.89706202
 
     40    -0.249E-11     0.0000236539        5.8970620184      12.27  <-- CONV
        O_D=      0.0000000 O_OD=      0.0062274 O_TOT=      5.8970620 <-- SPRD
 Delta: O_D= -0.1445724E-17 O_OD= -0.2494288E-11 O_TOT= -0.2494005E-11 <-- DLTA
 ------------------------------------------------------------------------------
 Cycle:     41
  WF centre and spread    1  (  1.920500,  1.920500,  1.920500 )     1.96568734
  WF centre and spread    2  (  1.920500,  1.920500,  1.920500 )     1.96568734
  WF centre and spread    3  (  1.920500,  1.920500,  1.920500 )     1.96568734
  Sum of centres and spreads (  5.761500,  5.761500,  5.761500 )     5.89706202
 
     41    -0.312E-11     0.0000236496        5.8970620184      12.34  <-- CONV
        O_D=      0.0000000 O_OD=      0.0062274 O_TOT=      5.8970620 <-- SPRD
 Delta: O_D= -0.1801487E-17 O_OD= -0.3117358E-11 O_TOT= -0.3117506E-11 <-- DLTA
 ------------------------------------------------------------------------------
 Cycle:     42
  WF centre and spread    1  (  1.920500,  1.920500,  1.920500 )     1.96568734
  WF centre and spread    2  (  1.920500,  1.920500,  1.920500 )     1.96568734
  WF centre and spread    3  (  1.920500,  1.920500,  1.920500 )     1.96568734
  Sum of centres and spreads (  5.761500,  5.761500,  5.761500 )     5.89706202
 
     42    -0.374E-11     0.0000236442        5.8970620184      12.41  <-- CONV
        O_D=      0.0000000 O_OD=      0.0062274 O_TOT=      5.8970620 <-- SPRD
 Delta: O_D= -0.2153469E-17 O_OD= -0.3737598E-11 O_TOT= -0.3737455E-11 <-- DLTA
 ------------------------------------------------------------------------------
 Cycle:     43
  WF centre and spread    1  (  1.920500,  1.920500,  1.920500 )     1.96568734
  WF centre and spread    2  (  1.920500,  1.920500,  1.920500 )     1.96568734
  WF centre and spread    3  (  1.920500,  1.920500,  1.920500 )     1.96568734
  Sum of centres and spreads (  5.761500,  5.761500,  5.761500 )     5.89706202
 
     43    -0.623E-12     0.0000236377        5.8970620184      12.48  <-- CONV
        O_D=      0.0000000 O_OD=      0.0062274 O_TOT=      5.8970620 <-- SPRD
 Delta: O_D= -0.3559658E-18 O_OD= -0.6227917E-12 O_TOT= -0.6226131E-12 <-- DLTA
 ------------------------------------------------------------------------------
 Cycle:     44
  WF centre and spread    1  (  1.920500,  1.920500,  1.920500 )     1.96568734
  WF centre and spread    2  (  1.920500,  1.920500,  1.920500 )     1.96568734
  WF centre and spread    3  (  1.920500,  1.920500,  1.920500 )     1.96568734
  Sum of centres and spreads (  5.761500,  5.761500,  5.761500 )     5.89706202
 
     44    -0.125E-11     0.0000236367        5.8970620184      12.55  <-- CONV
        O_D=      0.0000000 O_OD=      0.0062274 O_TOT=      5.8970620 <-- SPRD
 Delta: O_D= -0.7112112E-18 O_OD= -0.1246106E-11 O_TOT= -0.1246114E-11 <-- DLTA
 ------------------------------------------------------------------------------
 Cycle:     45
  WF centre and spread    1  (  1.920500,  1.920500,  1.920500 )     1.96568734
  WF centre and spread    2  (  1.920500,  1.920500,  1.920500 )     1.96568734
  WF centre and spread    3  (  1.920500,  1.920500,  1.920500 )     1.96568734
  Sum of centres and spreads (  5.761500,  5.761500,  5.761500 )     5.89706202
 
     45    -0.187E-11     0.0000236345        5.8970620184      12.62  <-- CONV
        O_D=      0.0000000 O_OD=      0.0062274 O_TOT=      5.8970620 <-- SPRD
 Delta: O_D= -0.1064982E-17 O_OD= -0.1867933E-11 O_TOT= -0.1867839E-11 <-- DLTA
 ------------------------------------------------------------------------------
 Cycle:     46
  WF centre and spread    1  (  1.920500,  1.920500,  1.920500 )     1.96568734
  WF centre and spread    2  (  1.920500,  1.920500,  1.920500 )     1.96568734
  WF centre and spread    3  (  1.920500,  1.920500,  1.920500 )     1.96568734
  Sum of centres and spreads (  5.761500,  5.761500,  5.761500 )     5.89706202
 
     46    -0.249E-11     0.0000236313        5.8970620184      12.69  <-- CONV
        O_D=      0.0000000 O_OD=      0.0062274 O_TOT=      5.8970620 <-- SPRD
 Delta: O_D= -0.1416529E-17 O_OD= -0.2490059E-11 O_TOT= -0.2490452E-11 <-- DLTA
 ------------------------------------------------------------------------------
 Cycle:     47
  WF centre and spread    1  (  1.920500,  1.920500,  1.920500 )     1.96568734
  WF centre and spread    2  (  1.920500,  1.920500,  1.920500 )     1.96568734
  WF centre and spread    3  (  1.920500,  1.920500,  1.920500 )     1.96568734
  Sum of centres and spreads (  5.761500,  5.761500,  5.761500 )     5.89706202
 
     47    -0.311E-11     0.0000236270        5.8970620184      12.76  <-- CONV
        O_D=      0.0000000 O_OD=      0.0062274 O_TOT=      5.8970620 <-- SPRD
 Delta: O_D= -0.1765110E-17 O_OD= -0.3110473E-11 O_TOT= -0.3110401E-11 <-- DLTA
 ------------------------------------------------------------------------------
 Cycle:     48
  WF centre and spread    1  (  1.920500,  1.920500,  1.920500 )     1.96568734
  WF centre and spread    2  (  1.920500,  1.920500,  1.920500 )     1.96568734
  WF centre and spread    3  (  1.920500,  1.920500,  1.920500 )     1.96568734
  Sum of centres and spreads (  5.761500,  5.761500,  5.761500 )     5.89706202
 
     48    -0.373E-11     0.0000236216        5.8970620184      12.83  <-- CONV
        O_D=      0.0000000 O_OD=      0.0062274 O_TOT=      5.8970620 <-- SPRD
 Delta: O_D= -0.2109991E-17 O_OD= -0.3731005E-11 O_TOT= -0.3731238E-11 <-- DLTA
 ------------------------------------------------------------------------------
 Cycle:     49
  WF centre and spread    1  (  1.920500,  1.920500,  1.920500 )     1.96568734
  WF centre and spread    2  (  1.920500,  1.920500,  1.920500 )     1.96568734
  WF centre and spread    3  (  1.920500,  1.920500,  1.920500 )     1.96568734
  Sum of centres and spreads (  5.761500,  5.761500,  5.761500 )     5.89706202
 
     49    -0.622E-12     0.0000236152        5.8970620184      12.90  <-- CONV
        O_D=      0.0000000 O_OD=      0.0062274 O_TOT=      5.8970620 <-- SPRD
 Delta: O_D= -0.3487789E-18 O_OD= -0.6217292E-12 O_TOT= -0.6217249E-12 <-- DLTA
 ------------------------------------------------------------------------------
 Cycle:     50
  WF centre and spread    1  (  1.920500,  1.920500,  1.920500 )     1.96568734
  WF centre and spread    2  (  1.920500,  1.920500,  1.920500 )     1.96568734
  WF centre and spread    3  (  1.920500,  1.920500,  1.920500 )     1.96568734
  Sum of centres and spreads (  5.761500,  5.761500,  5.761500 )     5.89706202
 
     50    -0.124E-11     0.0000236141        5.8970620184      12.97  <-- CONV
        O_D=      0.0000000 O_OD=      0.0062274 O_TOT=      5.8970620 <-- SPRD
 Delta: O_D= -0.6968506E-18 O_OD= -0.1243308E-11 O_TOT= -0.1242562E-11 <-- DLTA
 ------------------------------------------------------------------------------
 Cycle:     51
  WF centre and spread    1  (  1.920500,  1.920500,  1.920500 )     1.96568734
  WF centre and spread    2  (  1.920500,  1.920500,  1.920500 )     1.96568734
  WF centre and spread    3  (  1.920500,  1.920500,  1.920500 )     1.96568734
  Sum of centres and spreads (  5.761500,  5.761500,  5.761500 )     5.89706202
 
     51    -0.187E-11     0.0000236120        5.8970620184      13.04  <-- CONV
        O_D=      0.0000000 O_OD=      0.0062274 O_TOT=      5.8970620 <-- SPRD
 Delta: O_D= -0.1043478E-17 O_OD= -0.1864548E-11 O_TOT= -0.1865175E-11 <-- DLTA
 ------------------------------------------------------------------------------
 Cycle:     52
  WF centre and spread    1  (  1.920500,  1.920500,  1.920500 )     1.96568734
  WF centre and spread    2  (  1.920500,  1.920500,  1.920500 )     1.96568734
  WF centre and spread    3  (  1.920500,  1.920500,  1.920500 )     1.96568734
  Sum of centres and spreads (  5.761500,  5.761500,  5.761500 )     5.89706202
 
     52    -0.249E-11     0.0000236088        5.8970620183      13.12  <-- CONV
        O_D=      0.0000000 O_OD=      0.0062274 O_TOT=      5.8970620 <-- SPRD
 Delta: O_D= -0.1387929E-17 O_OD= -0.2485182E-11 O_TOT= -0.2485123E-11 <-- DLTA
 ------------------------------------------------------------------------------
 Cycle:     53
  WF centre and spread    1  (  1.920500,  1.920500,  1.920500 )     1.96568734
  WF centre and spread    2  (  1.920500,  1.920500,  1.920500 )     1.96568734
  WF centre and spread    3  (  1.920500,  1.920500,  1.920500 )     1.96568734
  Sum of centres and spreads (  5.761500,  5.761500,  5.761500 )     5.89706202
 
     53    -0.311E-11     0.0000236045        5.8970620183      13.19  <-- CONV
        O_D=      0.0000000 O_OD=      0.0062274 O_TOT=      5.8970620 <-- SPRD
 Delta: O_D= -0.1729477E-17 O_OD= -0.3105119E-11 O_TOT= -0.3105072E-11 <-- DLTA
 ------------------------------------------------------------------------------
 Cycle:     54
  WF centre and spread    1  (  1.920500,  1.920500,  1.920500 )     1.96568734
  WF centre and spread    2  (  1.920500,  1.920500,  1.920500 )     1.96568734
  WF centre and spread    3  (  1.920500,  1.920500,  1.920500 )     1.96568734
  Sum of centres and spreads (  5.761500,  5.761500,  5.761500 )     5.89706202
 
     54    -0.372E-11     0.0000235992        5.8970620183      13.26  <-- CONV
        O_D=      0.0000000 O_OD=      0.0062274 O_TOT=      5.8970620 <-- SPRD
 Delta: O_D= -0.2067401E-17 O_OD= -0.3723414E-11 O_TOT= -0.3723244E-11 <-- DLTA
 ------------------------------------------------------------------------------
 Cycle:     55
  WF centre and spread    1  (  1.920500,  1.920500,  1.920500 )     1.96568734
  WF centre and spread    2  (  1.920500,  1.920500,  1.920500 )     1.96568734
  WF centre and spread    3  (  1.920500,  1.920500,  1.920500 )     1.96568734
  Sum of centres and spreads (  5.761500,  5.761500,  5.761500 )     5.89706202
 
     55    -0.621E-12     0.0000235928        5.8970620183      13.33  <-- CONV
        O_D=      0.0000000 O_OD=      0.0062274 O_TOT=      5.8970620 <-- SPRD
 Delta: O_D= -0.3417375E-18 O_OD= -0.6210744E-12 O_TOT= -0.6208367E-12 <-- DLTA
 ------------------------------------------------------------------------------
 Cycle:     56
  WF centre and spread    1  (  1.920500,  1.920500,  1.920500 )     1.96568734
  WF centre and spread    2  (  1.920500,  1.920500,  1.920500 )     1.96568734
  WF centre and spread    3  (  1.920500,  1.920500,  1.920500 )     1.96568734
  Sum of centres and spreads (  5.761500,  5.761500,  5.761500 )     5.89706202
 
     56    -0.124E-11     0.0000235918        5.8970620183      13.40  <-- CONV
        O_D=      0.0000000 O_OD=      0.0062274 O_TOT=      5.8970620 <-- SPRD
 Delta: O_D= -0.6827824E-18 O_OD= -0.1240727E-11 O_TOT= -0.1240785E-11 <-- DLTA
 ------------------------------------------------------------------------------
 Cycle:     57
  WF centre and spread    1  (  1.920500,  1.920500,  1.920500 )     1.96568734
  WF centre and spread    2  (  1.920500,  1.920500,  1.920500 )     1.96568734
  WF centre and spread    3  (  1.920500,  1.920500,  1.920500 )     1.96568734
  Sum of centres and spreads (  5.761500,  5.761500,  5.761500 )     5.89706202
 
     57    -0.186E-11     0.0000235897        5.8970620183      13.47  <-- CONV
        O_D=      0.0000000 O_OD=      0.0062274 O_TOT=      5.8970620 <-- SPRD
 Delta: O_D= -0.1022414E-17 O_OD= -0.1860939E-11 O_TOT= -0.1860734E-11 <-- DLTA
 ------------------------------------------------------------------------------
 Cycle:     58
  WF centre and spread    1  (  1.920500,  1.920500,  1.920500 )     1.96568734
  WF centre and spread    2  (  1.920500,  1.920500,  1.920500 )     1.96568734
  WF centre and spread    3  (  1.920500,  1.920500,  1.920500 )     1.96568734
  Sum of centres and spreads (  5.761500,  5.761500,  5.761500 )     5.89706202
 
     58    -0.248E-11     0.0000235865        5.8970620183      13.54  <-- CONV
        O_D=      0.0000000 O_OD=      0.0062274 O_TOT=      5.8970620 <-- SPRD
 Delta: O_D= -0.1359915E-17 O_OD= -0.2480606E-11 O_TOT= -0.2480682E-11 <-- DLTA
 ------------------------------------------------------------------------------
 Cycle:     59
  WF centre and spread    1  (  1.920500,  1.920500,  1.920500 )     1.96568734
  WF centre and spread    2  (  1.920500,  1.920500,  1.920500 )     1.96568734
  WF centre and spread    3  (  1.920500,  1.920500,  1.920500 )     1.96568734
  Sum of centres and spreads (  5.761500,  5.761500,  5.761500 )     5.89706202
 
     59    -0.310E-11     0.0000235822        5.8970620183      13.61  <-- CONV
        O_D=      0.0000000 O_OD=      0.0062274 O_TOT=      5.8970620 <-- SPRD
 Delta: O_D= -0.1694572E-17 O_OD= -0.3099138E-11 O_TOT= -0.3099743E-11 <-- DLTA
 ------------------------------------------------------------------------------
 Cycle:     60
  WF centre and spread    1  (  1.920500,  1.920500,  1.920500 )     1.96568734
  WF centre and spread    2  (  1.920500,  1.920500,  1.920500 )     1.96568734
  WF centre and spread    3  (  1.920500,  1.920500,  1.920500 )     1.96568734
  Sum of centres and spreads (  5.761500,  5.761500,  5.761500 )     5.89706202
 
     60    -0.372E-11     0.0000235770        5.8970620183      13.68  <-- CONV
        O_D=      0.0000000 O_OD=      0.0062274 O_TOT=      5.8970620 <-- SPRD
 Delta: O_D= -0.2025680E-17 O_OD= -0.3716519E-11 O_TOT= -0.3716139E-11 <-- DLTA
 ------------------------------------------------------------------------------
 Cycle:     61
  WF centre and spread    1  (  1.920500,  1.920500,  1.920500 )     1.96568734
  WF centre and spread    2  (  1.920500,  1.920500,  1.920500 )     1.96568734
  WF centre and spread    3  (  1.920500,  1.920500,  1.920500 )     1.96568734
  Sum of centres and spreads (  5.761500,  5.761500,  5.761500 )     5.89706202
 
     61    -0.620E-12     0.0000235706        5.8970620183      13.75  <-- CONV
        O_D=      0.0000000 O_OD=      0.0062274 O_TOT=      5.8970620 <-- SPRD
 Delta: O_D= -0.3348403E-18 O_OD= -0.6195877E-12 O_TOT= -0.6199485E-12 <-- DLTA
 ------------------------------------------------------------------------------
 Cycle:     62
  WF centre and spread    1  (  1.920500,  1.920500,  1.920500 )     1.96568734
  WF centre and spread    2  (  1.920500,  1.920500,  1.920500 )     1.96568734
  WF centre and spread    3  (  1.920500,  1.920500,  1.920500 )     1.96568734
  Sum of centres and spreads (  5.761500,  5.761500,  5.761500 )     5.89706202
 
     62    -0.124E-11     0.0000235696        5.8970620183      13.83  <-- CONV
        O_D=      0.0000000 O_OD=      0.0062274 O_TOT=      5.8970620 <-- SPRD
 Delta: O_D= -0.6690028E-18 O_OD= -0.1238572E-11 O_TOT= -0.1238121E-11 <-- DLTA
 ------------------------------------------------------------------------------
 Cycle:     63
  WF centre and spread    1  (  1.920500,  1.920500,  1.920500 )     1.96568734
  WF centre and spread    2  (  1.920500,  1.920500,  1.920500 )     1.96568734
  WF centre and spread    3  (  1.920500,  1.920500,  1.920500 )     1.96568734
  Sum of centres and spreads (  5.761500,  5.761500,  5.761500 )     5.89706202
 
     63    -0.186E-11     0.0000235675        5.8970620183      13.90  <-- CONV
        O_D=      0.0000000 O_OD=      0.0062274 O_TOT=      5.8970620 <-- SPRD
 Delta: O_D= -0.1001781E-17 O_OD= -0.1857384E-11 O_TOT= -0.1857181E-11 <-- DLTA
 ------------------------------------------------------------------------------
 Cycle:     64
  WF centre and spread    1  (  1.920500,  1.920500,  1.920500 )     1.96568734
  WF centre and spread    2  (  1.920500,  1.920500,  1.920500 )     1.96568734
  WF centre and spread    3  (  1.920500,  1.920500,  1.920500 )     1.96568734
  Sum of centres and spreads (  5.761500,  5.761500,  5.761500 )     5.89706202
 
     64    -0.248E-11     0.0000235643        5.8970620183      13.97  <-- CONV
        O_D=      0.0000000 O_OD=      0.0062274 O_TOT=      5.8970620 <-- SPRD
 Delta: O_D= -0.1332473E-17 O_OD= -0.2476091E-11 O_TOT= -0.2476241E-11 <-- DLTA
 ------------------------------------------------------------------------------
 Cycle:     65
  WF centre and spread    1  (  1.920500,  1.920500,  1.920500 )     1.96568734
  WF centre and spread    2  (  1.920500,  1.920500,  1.920500 )     1.96568734
  WF centre and spread    3  (  1.920500,  1.920500,  1.920500 )     1.96568734
  Sum of centres and spreads (  5.761500,  5.761500,  5.761500 )     5.89706202
 
     65    -0.309E-11     0.0000235601        5.8970620183      14.04  <-- CONV
        O_D=      0.0000000 O_OD=      0.0062274 O_TOT=      5.8970620 <-- SPRD
 Delta: O_D= -0.1660379E-17 O_OD= -0.3093224E-11 O_TOT= -0.3093525E-11 <-- DLTA
 ------------------------------------------------------------------------------
 Cycle:     66
  WF centre and spread    1  (  1.920500,  1.920500,  1.920500 )     1.96568734
  WF centre and spread    2  (  1.920500,  1.920500,  1.920500 )     1.96568734
  WF centre and spread    3  (  1.920500,  1.920500,  1.920500 )     1.96568734
  Sum of centres and spreads (  5.761500,  5.761500,  5.761500 )     5.89706202
 
     66    -0.371E-11     0.0000235548        5.8970620183      14.11  <-- CONV
        O_D=      0.0000000 O_OD=      0.0062274 O_TOT=      5.8970620 <-- SPRD
 Delta: O_D= -0.1984813E-17 O_OD= -0.3709841E-11 O_TOT= -0.3709921E-11 <-- DLTA
 ------------------------------------------------------------------------------
 Cycle:     67
  WF centre and spread    1  (  1.920500,  1.920500,  1.920500 )     1.96568734
  WF centre and spread    2  (  1.920500,  1.920500,  1.920500 )     1.96568734
  WF centre and spread    3  (  1.920500,  1.920500,  1.920500 )     1.96568734
  Sum of centres and spreads (  5.761500,  5.761500,  5.761500 )     5.89706202
 
     67    -0.617E-12     0.0000235485        5.8970620183      14.18  <-- CONV
        O_D=      0.0000000 O_OD=      0.0062274 O_TOT=      5.8970620 <-- SPRD
 Delta: O_D= -0.3280836E-18 O_OD= -0.6178209E-12 O_TOT= -0.6172840E-12 <-- DLTA
 ------------------------------------------------------------------------------
 Cycle:     68
  WF centre and spread    1  (  1.920500,  1.920500,  1.920500 )     1.96568734
  WF centre and spread    2  (  1.920500,  1.920500,  1.920500 )     1.96568734
  WF centre and spread    3  (  1.920500,  1.920500,  1.920500 )     1.96568734
  Sum of centres and spreads (  5.761500,  5.761500,  5.761500 )     5.89706202
 
     68    -0.124E-11     0.0000235475        5.8970620183      14.25  <-- CONV
        O_D=      0.0000000 O_OD=      0.0062274 O_TOT=      5.8970620 <-- SPRD
 Delta: O_D= -0.6555043E-18 O_OD= -0.1236627E-11 O_TOT= -0.1237233E-11 <-- DLTA
 ------------------------------------------------------------------------------
 Cycle:     69
  WF centre and spread    1  (  1.920500,  1.920500,  1.920500 )     1.96568734
  WF centre and spread    2  (  1.920500,  1.920500,  1.920500 )     1.96568734
  WF centre and spread    3  (  1.920500,  1.920500,  1.920500 )     1.96568734
  Sum of centres and spreads (  5.761500,  5.761500,  5.761500 )     5.89706202
 
     69    -0.185E-11     0.0000235454        5.8970620183      14.32  <-- CONV
        O_D=      0.0000000 O_OD=      0.0062274 O_TOT=      5.8970620 <-- SPRD
 Delta: O_D= -0.9815690E-18 O_OD= -0.1854308E-11 O_TOT= -0.1854517E-11 <-- DLTA
 ------------------------------------------------------------------------------
 Cycle:     70
  WF centre and spread    1  (  1.920500,  1.920500,  1.920500 )     1.96568734
  WF centre and spread    2  (  1.920500,  1.920500,  1.920500 )     1.96568734
  WF centre and spread    3  (  1.920500,  1.920500,  1.920500 )     1.96568734
  Sum of centres and spreads (  5.761500,  5.761500,  5.761500 )     5.89706202
 
     70    -0.247E-11     0.0000235423        5.8970620183      14.39  <-- CONV
        O_D=      0.0000000 O_OD=      0.0062274 O_TOT=      5.8970620 <-- SPRD
 Delta: O_D= -0.1305590E-17 O_OD= -0.2470889E-11 O_TOT= -0.2470912E-11 <-- DLTA
 ------------------------------------------------------------------------------
 Cycle:     71
  WF centre and spread    1  (  1.920500,  1.920500,  1.920500 )     1.96568734
  WF centre and spread    2  (  1.920500,  1.920500,  1.920500 )     1.96568734
  WF centre and spread    3  (  1.920500,  1.920500,  1.920500 )     1.96568734
  Sum of centres and spreads (  5.761500,  5.761500,  5.761500 )     5.89706202
 
     71    -0.309E-11     0.0000235381        5.8970620183      14.46  <-- CONV
        O_D=      0.0000000 O_OD=      0.0062274 O_TOT=      5.8970620 <-- SPRD
 Delta: O_D= -0.1626886E-17 O_OD= -0.3087430E-11 O_TOT= -0.3087308E-11 <-- DLTA
 ------------------------------------------------------------------------------
 Cycle:     72
  WF centre and spread    1  (  1.920500,  1.920500,  1.920500 )     1.96568734
  WF centre and spread    2  (  1.920500,  1.920500,  1.920500 )     1.96568734
  WF centre and spread    3  (  1.920500,  1.920500,  1.920500 )     1.96568734
  Sum of centres and spreads (  5.761500,  5.761500,  5.761500 )     5.89706202
 
     72    -0.370E-11     0.0000235329        5.8970620183      14.53  <-- CONV
        O_D=      0.0000000 O_OD=      0.0062274 O_TOT=      5.8970620 <-- SPRD
 Delta: O_D= -0.1944778E-17 O_OD= -0.3702776E-11 O_TOT= -0.3702816E-11 <-- DLTA
 ------------------------------------------------------------------------------
 Cycle:     73
  WF centre and spread    1  (  1.920500,  1.920500,  1.920500 )     1.96568734
  WF centre and spread    2  (  1.920500,  1.920500,  1.920500 )     1.96568734
  WF centre and spread    3  (  1.920500,  1.920500,  1.920500 )     1.96568734
  Sum of centres and spreads (  5.761500,  5.761500,  5.761500 )     5.89706202
 
     73    -0.617E-12     0.0000235266        5.8970620183      14.61  <-- CONV
        O_D=      0.0000000 O_OD=      0.0062274 O_TOT=      5.8970620 <-- SPRD
 Delta: O_D= -0.3214658E-18 O_OD= -0.6173170E-12 O_TOT= -0.6172840E-12 <-- DLTA
 ------------------------------------------------------------------------------
 Cycle:     74
  WF centre and spread    1  (  1.920500,  1.920500,  1.920500 )     1.96568734
  WF centre and spread    2  (  1.920500,  1.920500,  1.920500 )     1.96568734
  WF centre and spread    3  (  1.920500,  1.920500,  1.920500 )     1.96568734
  Sum of centres and spreads (  5.761500,  5.761500,  5.761500 )     5.89706202
 
     74    -0.123E-11     0.0000235256        5.8970620183      14.68  <-- CONV
        O_D=      0.0000000 O_OD=      0.0062274 O_TOT=      5.8970620 <-- SPRD
 Delta: O_D= -0.6422809E-18 O_OD= -0.1234107E-11 O_TOT= -0.1233680E-11 <-- DLTA
 ------------------------------------------------------------------------------
 Cycle:     75
  WF centre and spread    1  (  1.920500,  1.920500,  1.920500 )     1.96568734
  WF centre and spread    2  (  1.920500,  1.920500,  1.920500 )     1.96568734
  WF centre and spread    3  (  1.920500,  1.920500,  1.920500 )     1.96568734
  Sum of centres and spreads (  5.761500,  5.761500,  5.761500 )     5.89706202
 
     75    -0.185E-11     0.0000235235        5.8970620183      14.75  <-- CONV
        O_D=      0.0000000 O_OD=      0.0062274 O_TOT=      5.8970620 <-- SPRD
 Delta: O_D= -0.9617692E-18 O_OD= -0.1850430E-11 O_TOT= -0.1850964E-11 <-- DLTA
 ------------------------------------------------------------------------------
 Cycle:     76
  WF centre and spread    1  (  1.920500,  1.920500,  1.920500 )     1.96568734
  WF centre and spread    2  (  1.920500,  1.920500,  1.920500 )     1.96568734
  WF centre and spread    3  (  1.920500,  1.920500,  1.920500 )     1.96568734
  Sum of centres and spreads (  5.761500,  5.761500,  5.761500 )     5.89706202
 
     76    -0.247E-11     0.0000235204        5.8970620183      14.82  <-- CONV
        O_D=      0.0000000 O_OD=      0.0062274 O_TOT=      5.8970620 <-- SPRD
 Delta: O_D= -0.1279257E-17 O_OD= -0.2466926E-11 O_TOT= -0.2466471E-11 <-- DLTA
 ------------------------------------------------------------------------------
 Cycle:     77
  WF centre and spread    1  (  1.920500,  1.920500,  1.920500 )     1.96568734
  WF centre and spread    2  (  1.920500,  1.920500,  1.920500 )     1.96568734
  WF centre and spread    3  (  1.920500,  1.920500,  1.920500 )     1.96568734
  Sum of centres and spreads (  5.761500,  5.761500,  5.761500 )     5.89706202
 
     77    -0.308E-11     0.0000235162        5.8970620183      14.89  <-- CONV
        O_D=      0.0000000 O_OD=      0.0062274 O_TOT=      5.8970620 <-- SPRD
 Delta: O_D= -0.1594075E-17 O_OD= -0.3081581E-11 O_TOT= -0.3081979E-11 <-- DLTA
 ------------------------------------------------------------------------------
 Cycle:     78
  WF centre and spread    1  (  1.920500,  1.920500,  1.920500 )     1.96568734
  WF centre and spread    2  (  1.920500,  1.920500,  1.920500 )     1.96568734
  WF centre and spread    3  (  1.920500,  1.920500,  1.920500 )     1.96568734
  Sum of centres and spreads (  5.761500,  5.761500,  5.761500 )     5.89706202
 
     78    -0.370E-11     0.0000235111        5.8970620183      14.96  <-- CONV
        O_D=      0.0000000 O_OD=      0.0062274 O_TOT=      5.8970620 <-- SPRD
 Delta: O_D= -0.1905562E-17 O_OD= -0.3695951E-11 O_TOT= -0.3695710E-11 <-- DLTA
 ------------------------------------------------------------------------------
 Cycle:     79
  WF centre and spread    1  (  1.920500,  1.920500,  1.920500 )     1.96568734
  WF centre and spread    2  (  1.920500,  1.920500,  1.920500 )     1.96568734
  WF centre and spread    3  (  1.920500,  1.920500,  1.920500 )     1.96568734
  Sum of centres and spreads (  5.761500,  5.761500,  5.761500 )     5.89706202
 
     79    -0.616E-12     0.0000235049        5.8970620183      15.03  <-- CONV
        O_D=      0.0000000 O_OD=      0.0062274 O_TOT=      5.8970620 <-- SPRD
 Delta: O_D= -0.3149820E-18 O_OD= -0.6162813E-12 O_TOT= -0.6163958E-12 <-- DLTA
 ------------------------------------------------------------------------------
 Cycle:     80
  WF centre and spread    1  (  1.920500,  1.920500,  1.920500 )     1.96568734
  WF centre and spread    2  (  1.920500,  1.920500,  1.920500 )     1.96568734
  WF centre and spread    3  (  1.920500,  1.920500,  1.920500 )     1.96568734
  Sum of centres and spreads (  5.761500,  5.761500,  5.761500 )     5.89706202
 
     80    -0.123E-11     0.0000235038        5.8970620183      15.10  <-- CONV
        O_D=      0.0000000 O_OD=      0.0062274 O_TOT=      5.8970620 <-- SPRD
 Delta: O_D= -0.6293280E-18 O_OD= -0.1231539E-11 O_TOT= -0.1231015E-11 <-- DLTA
 ------------------------------------------------------------------------------
 Cycle:     81
  WF centre and spread    1  (  1.920500,  1.920500,  1.920500 )     1.96568734
  WF centre and spread    2  (  1.920500,  1.920500,  1.920500 )     1.96568734
  WF centre and spread    3  (  1.920500,  1.920500,  1.920500 )     1.96568734
  Sum of centres and spreads (  5.761500,  5.761500,  5.761500 )     5.89706202
 
     81    -0.185E-11     0.0000235018        5.8970620183      15.17  <-- CONV
        O_D=      0.0000000 O_OD=      0.0062274 O_TOT=      5.8970620 <-- SPRD
 Delta: O_D= -0.9423740E-18 O_OD= -0.1847490E-11 O_TOT= -0.1847411E-11 <-- DLTA
 ------------------------------------------------------------------------------
 Cycle:     82
  WF centre and spread    1  (  1.920500,  1.920500,  1.920500 )     1.96568734
  WF centre and spread    2  (  1.920500,  1.920500,  1.920500 )     1.96568734
  WF centre and spread    3  (  1.920500,  1.920500,  1.920500 )     1.96568734
  Sum of centres and spreads (  5.761500,  5.761500,  5.761500 )     5.89706202
 
     82    -0.246E-11     0.0000234987        5.8970620183      15.24  <-- CONV
        O_D=      0.0000000 O_OD=      0.0062274 O_TOT=      5.8970620 <-- SPRD
 Delta: O_D= -0.1253460E-17 O_OD= -0.2461773E-11 O_TOT= -0.2462031E-11 <-- DLTA
 ------------------------------------------------------------------------------
 Cycle:     83
  WF centre and spread    1  (  1.920500,  1.920500,  1.920500 )     1.96568734
  WF centre and spread    2  (  1.920500,  1.920500,  1.920500 )     1.96568734
  WF centre and spread    3  (  1.920500,  1.920500,  1.920500 )     1.96568734
  Sum of centres and spreads (  5.761500,  5.761500,  5.761500 )     5.89706202
 
     83    -0.308E-11     0.0000234945        5.8970620183      15.32  <-- CONV
        O_D=      0.0000000 O_OD=      0.0062274 O_TOT=      5.8970620 <-- SPRD
 Delta: O_D= -0.1561934E-17 O_OD= -0.3075928E-11 O_TOT= -0.3075762E-11 <-- DLTA
 ------------------------------------------------------------------------------
 Cycle:     84
  WF centre and spread    1  (  1.920500,  1.920500,  1.920500 )     1.96568734
  WF centre and spread    2  (  1.920500,  1.920500,  1.920500 )     1.96568734
  WF centre and spread    3  (  1.920500,  1.920500,  1.920500 )     1.96568734
  Sum of centres and spreads (  5.761500,  5.761500,  5.761500 )     5.89706202
 
     84    -0.369E-11     0.0000234894        5.8970620183      15.39  <-- CONV
        O_D=      0.0000000 O_OD=      0.0062274 O_TOT=      5.8970620 <-- SPRD
 Delta: O_D= -0.1867146E-17 O_OD= -0.3689354E-11 O_TOT= -0.3689493E-11 <-- DLTA
 ------------------------------------------------------------------------------
 Cycle:     85
  WF centre and spread    1  (  1.920500,  1.920500,  1.920500 )     1.96568734
  WF centre and spread    2  (  1.920500,  1.920500,  1.920500 )     1.96568734
  WF centre and spread    3  (  1.920500,  1.920500,  1.920500 )     1.96568734
  Sum of centres and spreads (  5.761500,  5.761500,  5.761500 )     5.89706202
 
     85    -0.616E-12     0.0000234832        5.8970620183      15.46  <-- CONV
        O_D=      0.0000000 O_OD=      0.0062274 O_TOT=      5.8970620 <-- SPRD
 Delta: O_D= -0.3086313E-18 O_OD= -0.6149794E-12 O_TOT= -0.6155076E-12 <-- DLTA
 ------------------------------------------------------------------------------
 Cycle:     86
  WF centre and spread    1  (  1.920500,  1.920500,  1.920500 )     1.96568734
  WF centre and spread    2  (  1.920500,  1.920500,  1.920500 )     1.96568734
  WF centre and spread    3  (  1.920500,  1.920500,  1.920500 )     1.96568734
  Sum of centres and spreads (  5.761500,  5.761500,  5.761500 )     5.89706202
 
     86    -0.123E-11     0.0000234822        5.8970620183      15.53  <-- CONV
        O_D=      0.0000000 O_OD=      0.0062274 O_TOT=      5.8970620 <-- SPRD
 Delta: O_D= -0.6166393E-18 O_OD= -0.1229086E-11 O_TOT= -0.1228351E-11 <-- DLTA
 ------------------------------------------------------------------------------
 Cycle:     87
  WF centre and spread    1  (  1.920500,  1.920500,  1.920500 )     1.96568734
  WF centre and spread    2  (  1.920500,  1.920500,  1.920500 )     1.96568734
  WF centre and spread    3  (  1.920500,  1.920500,  1.920500 )     1.96568734
  Sum of centres and spreads (  5.761500,  5.761500,  5.761500 )     5.89706202
 
     87    -0.184E-11     0.0000234802        5.8970620183      15.60  <-- CONV
        O_D=      0.0000000 O_OD=      0.0062274 O_TOT=      5.8970620 <-- SPRD
 Delta: O_D= -0.9233754E-18 O_OD= -0.1844318E-11 O_TOT= -0.1844747E-11 <-- DLTA
 ------------------------------------------------------------------------------
 Cycle:     88
  WF centre and spread    1  (  1.920500,  1.920500,  1.920500 )     1.96568734
  WF centre and spread    2  (  1.920500,  1.920500,  1.920500 )     1.96568734
  WF centre and spread    3  (  1.920500,  1.920500,  1.920500 )     1.96568734
  Sum of centres and spreads (  5.761500,  5.761500,  5.761500 )     5.89706202
 
     88    -0.246E-11     0.0000234771        5.8970620183      15.67  <-- CONV
        O_D=      0.0000000 O_OD=      0.0062274 O_TOT=      5.8970620 <-- SPRD
 Delta: O_D= -0.1228192E-17 O_OD= -0.2457478E-11 O_TOT= -0.2457590E-11 <-- DLTA
 ------------------------------------------------------------------------------
 Cycle:     89
  WF centre and spread    1  (  1.920500,  1.920500,  1.920500 )     1.96568734
  WF centre and spread    2  (  1.920500,  1.920500,  1.920500 )     1.96568734
  WF centre and spread    3  (  1.920500,  1.920500,  1.920500 )     1.96568734
  Sum of centres and spreads (  5.761500,  5.761500,  5.761500 )     5.89706202
 
     89    -0.307E-11     0.0000234730        5.8970620183      15.74  <-- CONV
        O_D=      0.0000000 O_OD=      0.0062274 O_TOT=      5.8970620 <-- SPRD
 Delta: O_D= -0.1530450E-17 O_OD= -0.3070442E-11 O_TOT= -0.3070433E-11 <-- DLTA
 ------------------------------------------------------------------------------
 Cycle:     90
  WF centre and spread    1  (  1.920500,  1.920500,  1.920500 )     1.96568734
  WF centre and spread    2  (  1.920500,  1.920500,  1.920500 )     1.96568734
  WF centre and spread    3  (  1.920500,  1.920500,  1.920500 )     1.96568734
  Sum of centres and spreads (  5.761500,  5.761500,  5.761500 )     5.89706202
 
     90    -0.368E-11     0.0000234679        5.8970620183      15.81  <-- CONV
        O_D=      0.0000000 O_OD=      0.0062274 O_TOT=      5.8970620 <-- SPRD
 Delta: O_D= -0.1829513E-17 O_OD= -0.3682298E-11 O_TOT= -0.3682388E-11 <-- DLTA
 ------------------------------------------------------------------------------
 Cycle:     91
  WF centre and spread    1  (  1.920500,  1.920500,  1.920500 )     1.96568734
  WF centre and spread    2  (  1.920500,  1.920500,  1.920500 )     1.96568734
  WF centre and spread    3  (  1.920500,  1.920500,  1.920500 )     1.96568734
  Sum of centres and spreads (  5.761500,  5.761500,  5.761500 )     5.89706202
 
     91    -0.613E-12     0.0000234617        5.8970620183      15.88  <-- CONV
        O_D=      0.0000000 O_OD=      0.0062274 O_TOT=      5.8970620 <-- SPRD
 Delta: O_D= -0.3024110E-18 O_OD= -0.6134095E-12 O_TOT= -0.6128431E-12 <-- DLTA
 ------------------------------------------------------------------------------
 Cycle:     92
  WF centre and spread    1  (  1.920500,  1.920500,  1.920500 )     1.96568734
  WF centre and spread    2  (  1.920500,  1.920500,  1.920500 )     1.96568734
  WF centre and spread    3  (  1.920500,  1.920500,  1.920500 )     1.96568734
  Sum of centres and spreads (  5.761500,  5.761500,  5.761500 )     5.89706202
 
     92    -0.123E-11     0.0000234607        5.8970620183      15.95  <-- CONV
        O_D=      0.0000000 O_OD=      0.0062274 O_TOT=      5.8970620 <-- SPRD
 Delta: O_D= -0.6042104E-18 O_OD= -0.1227791E-11 O_TOT= -0.1228351E-11 <-- DLTA
 ------------------------------------------------------------------------------
 Cycle:     93
  WF centre and spread    1  (  1.920500,  1.920500,  1.920500 )     1.96568734
  WF centre and spread    2  (  1.920500,  1.920500,  1.920500 )     1.96568734
  WF centre and spread    3  (  1.920500,  1.920500,  1.920500 )     1.96568734
  Sum of centres and spreads (  5.761500,  5.761500,  5.761500 )     5.89706202
 
     93    -0.184E-11     0.0000234587        5.8970620183      16.02  <-- CONV
        O_D=      0.0000000 O_OD=      0.0062274 O_TOT=      5.8970620 <-- SPRD
 Delta: O_D= -0.9047639E-18 O_OD= -0.1840417E-11 O_TOT= -0.1840306E-11 <-- DLTA
 ------------------------------------------------------------------------------
 Cycle:     94
  WF centre and spread    1  (  1.920500,  1.920500,  1.920500 )     1.96568734
  WF centre and spread    2  (  1.920500,  1.920500,  1.920500 )     1.96568734
  WF centre and spread    3  (  1.920500,  1.920500,  1.920500 )     1.96568734
  Sum of centres and spreads (  5.761500,  5.761500,  5.761500 )     5.89706202
 
     94    -0.245E-11     0.0000234556        5.8970620183      16.09  <-- CONV
        O_D=      0.0000000 O_OD=      0.0062274 O_TOT=      5.8970620 <-- SPRD
 Delta: O_D= -0.1203438E-17 O_OD= -0.2453067E-11 O_TOT= -0.2453149E-11 <-- DLTA
 ------------------------------------------------------------------------------
 Cycle:     95
  WF centre and spread    1  (  1.920500,  1.920500,  1.920500 )     1.96568734
  WF centre and spread    2  (  1.920500,  1.920500,  1.920500 )     1.96568734
  WF centre and spread    3  (  1.920500,  1.920500,  1.920500 )     1.96568734
  Sum of centres and spreads (  5.761500,  5.761500,  5.761500 )     5.89706202
 
     95    -0.306E-11     0.0000234516        5.8970620183      16.17  <-- CONV
        O_D=      0.0000000 O_OD=      0.0062274 O_TOT=      5.8970620 <-- SPRD
 Delta: O_D= -0.1499607E-17 O_OD= -0.3064706E-11 O_TOT= -0.3064216E-11 <-- DLTA
 ------------------------------------------------------------------------------
 Cycle:     96
  WF centre and spread    1  (  1.920500,  1.920500,  1.920500 )     1.96568734
  WF centre and spread    2  (  1.920500,  1.920500,  1.920500 )     1.96568734
  WF centre and spread    3  (  1.920500,  1.920500,  1.920500 )     1.96568734
  Sum of centres and spreads (  5.761500,  5.761500,  5.761500 )     5.89706202
 
     96    -0.368E-11     0.0000234465        5.8970620183      16.24  <-- CONV
        O_D=      0.0000000 O_OD=      0.0062274 O_TOT=      5.8970620 <-- SPRD
 Delta: O_D= -0.1792649E-17 O_OD= -0.3675976E-11 O_TOT= -0.3676170E-11 <-- DLTA
 ------------------------------------------------------------------------------
 Cycle:     97
  WF centre and spread    1  (  1.920500,  1.920500,  1.920500 )     1.96568734
  WF centre and spread    2  (  1.920500,  1.920500,  1.920500 )     1.96568734
  WF centre and spread    3  (  1.920500,  1.920500,  1.920500 )     1.96568734
  Sum of centres and spreads (  5.761500,  5.761500,  5.761500 )     5.89706202
 
     97    -0.612E-12     0.0000234404        5.8970620182      16.31  <-- CONV
        O_D=      0.0000000 O_OD=      0.0062274 O_TOT=      5.8970620 <-- SPRD
 Delta: O_D= -0.2963161E-18 O_OD= -0.6122871E-12 O_TOT= -0.6119549E-12 <-- DLTA
 ------------------------------------------------------------------------------
 Cycle:     98
  WF centre and spread    1  (  1.920500,  1.920500,  1.920500 )     1.96568734
  WF centre and spread    2  (  1.920500,  1.920500,  1.920500 )     1.96568734
  WF centre and spread    3  (  1.920500,  1.920500,  1.920500 )     1.96568734
  Sum of centres and spreads (  5.761500,  5.761500,  5.761500 )     5.89706202
 
     98    -0.123E-11     0.0000234394        5.8970620182      16.38  <-- CONV
        O_D=      0.0000000 O_OD=      0.0062274 O_TOT=      5.8970620 <-- SPRD
 Delta: O_D= -0.5920345E-18 O_OD= -0.1224935E-11 O_TOT= -0.1225686E-11 <-- DLTA
 ------------------------------------------------------------------------------
 Cycle:     99
  WF centre and spread    1  (  1.920500,  1.920500,  1.920500 )     1.96568734
  WF centre and spread    2  (  1.920500,  1.920500,  1.920500 )     1.96568734
  WF centre and spread    3  (  1.920500,  1.920500,  1.920500 )     1.96568734
  Sum of centres and spreads (  5.761500,  5.761500,  5.761500 )     5.89706202
 
     99    -0.184E-11     0.0000234374        5.8970620182      16.45  <-- CONV
        O_D=      0.0000000 O_OD=      0.0062274 O_TOT=      5.8970620 <-- SPRD
 Delta: O_D= -0.8865322E-18 O_OD= -0.1837309E-11 O_TOT= -0.1836753E-11 <-- DLTA
 ------------------------------------------------------------------------------
 Cycle:    100
  WF centre and spread    1  (  1.920500,  1.920500,  1.920500 )     1.96568734
  WF centre and spread    2  (  1.920500,  1.920500,  1.920500 )     1.96568734
  WF centre and spread    3  (  1.920500,  1.920500,  1.920500 )     1.96568734
  Sum of centres and spreads (  5.761500,  5.761500,  5.761500 )     5.89706202
 
    100    -0.245E-11     0.0000234343        5.8970620182      16.52  <-- CONV
        O_D=      0.0000000 O_OD=      0.0062274 O_TOT=      5.8970620 <-- SPRD
 Delta: O_D= -0.1179190E-17 O_OD= -0.2448440E-11 O_TOT= -0.2448708E-11 <-- DLTA
 ------------------------------------------------------------------------------

 done

 Final State
  WF centre and spread    1  (  1.920500,  1.920500,  1.920500 )     1.96568734
  WF centre and spread    2  (  1.920500,  1.920500,  1.920500 )     1.96568734
  WF centre and spread    3  (  1.920500,  1.920500,  1.920500 )     1.96568734
  Sum of centres and spreads (  5.761500,  5.761500,  5.761500 )     5.89706202
 
         Spreads (Ang^2)       Omega I      =     5.890834637
        ================       Omega D      =     0.000000000
                               Omega OD     =     0.006227381
    Final Spread (Ang^2)       Omega Total  =     5.897062018
 ------------------------------------------------------------------------------
 Time for wannierise            7.840 (sec)

 done

 *---------------------------------------------------------------------------*
 |                               PLOTTING                                    |
 *---------------------------------------------------------------------------*
 
 
 Calculating interpolated band-structure
 
 Time to calculate interpolated band structure       2.454 (sec)
 
 Time for plotting              7.861 (sec)
 Total Execution Time         156.846 (sec)

 *===========================================================================*
 |                             TIMING INFORMATION                            |
 *===========================================================================*
 |    Tag                                                Ncalls      Time (s)|
 |---------------------------------------------------------------------------|
 |kmesh: get                                        :         1         4.046|
 |overlap: allocate                                 :         1         0.001|
 |overlap: read                                     :         1       126.944|
 |dis: main                                         :         1         9.409|
 |wann: main                                        :         1         7.840|
 |plot: main                                        :         1         7.861|
 *---------------------------------------------------------------------------*
 
 All done: wannier90 exiting
