 +---------------------------------------------------------------+
 |                                                               |
 |        ####### #     # ####### ####### ####### ######         |
 |        #     # ##    # #          #    #       #     #        |
 |        #     # # #   # #          #    #       #     #        |
 |        #     # #  #  # #####      #    #####   ######         |
 |        #     # #   # # #          #    #       #              |
 |        #     # #    ## #          #    #       #              |
 |        ####### #     # #######    #    ####### #              |
 |                                                               |
 |        Linear-Scaling Ab Initio Total Energy Program          |
 |                                                               |
 |          Release for academic collaborators of ODG            |
 |                                             Version 4.3.0.7   |
 |                                                               |
 +---------------------------------------------------------------+
 |                                                               |
 |  Authors:                                                     |
 |  Jacek Dziedzic, Peter D. Haynes, Nicholas D. M. Hine,        |
 |  Arash. A. Mostofi, Mike C. Payne and Chris-Kriton Skylaris   |
 |                                                               |
 |  Contributors:                                                |
 |  J. Aarons, L. Andrinopoulos, P. W. Avraam, R. A. Bell,       |
 |  S. J. Clark, G. C. Constantinescu, F. Corsetti, N. Corsini,  |
 |  O. Dieguez, S. M. M. Dubois,  J. M. Escartin, H. H. Helal,   |
 |  Q. O. Hill, L. P. Lee, J.-H. Li, G. Moynihan, D. D. O`Regan, |
 |  M. J. S. Phipps, C. J. Pickard, M. I. J. Probert,            |
 |  L. Ratcliff, M. Robinson, A. Ruiz Serrano, J. S. Spencer,    |
 |  E. W. Tait, G. Teobaldi, D. Turban, V. Vitale,               |
 |  K. A. Wilkinson and T. J. Zuehlsdorff                        |
 |                                                               |
 |                                   Copyright (c) 2004-2015     |
 |                                                               |
 |  Please cite:                                                 |
 |  "Introducing ONETEP: Linear-scaling density functional       |
 |   simulations on parallel computers".                         |
 |   C.-K. Skylaris, P. D. Haynes, A. A. Mostofi, M. C. Payne.   |
 |   J. Chem. Phys. 122 084119 (2005).                           |
 |                                                               |
 |          in all publications arising from your use of ONETEP. |
 |                                                               |
 +---------------------------------------------------------------+
 |                                                               |
 |   ONETEP is based on developments described in the following  |
 |   publications:                                               |
 |                                                               |
 |  "Nonorthogonal generalized Wannier function pseudopotential  |
 |   plane-wave method".                                         |
 |   C.-K. Skylaris, A. A. Mostofi, P. D. Haynes, O. Dieguez,    |
 |   M. C. Payne.                                                |
 |   Phys. Rev. B 66 035119 (2002).                              |
 |                                                               |
 |  "Preconditioned iterative minimization for linear-scaling    |
 |   electronic structure calculations".                         |
 |   A. A. Mostofi, P. D. Haynes, C.-K. Skylaris, M. C. Payne.   |
 |   J. Chem. Phys. 119(17), pp.8842-8848 (2003).                |
 |                                                               |
 |  "Total-energy calculations on a real space grid with         |
 |   localized functions and a plane-wave basis".                |
 |   A. A. Mostofi, C.-K. Skylaris, P. D. Haynes, M. C. Payne.   |
 |   Comput. Phys. Commun. 147, pp.788-802 (2002).               |
 |                                                               |
 |  "Accurate kinetic energy evaluation in electronic structure  |
 |   calculations with localized functions on real space grids"  |
 |   C.-K. Skylaris, A. A. Mostofi, P. D. Haynes, C. J. Pickard, |
 |   M. C. Payne.                                                |
 |   Comput. Phys. Commun. 140, pp.315-322 (2001).               |
 |                                                               |
 |  "Accurate ionic forces and geometry optimization in linear-  |
 |   scaling density-functional theory with local orbitals"      |
 |   N. D. M. Hine, M. Robinson, P. D. Haynes, C.-K. Skylaris,   |
 |   M. C. Payne, and A. A. Mostofi.                             |
 |   Phys. Rev. B 83 195102 (2011).                              |
 |                                                               |
 +---------------------------------------------------------------+

Job started: 30-06-2015 17:06 (+0100)
 
If your calculation crashes here, before "Reading parameters..."
is displayed, then your stack size is insufficient.
If so, use "ulimit -s unlimited" at runtime.

Reading parameters from file "reac.dat" ...... done

Checking processes and threads...
      Default threads: 6
   Running with 1 MPI process.
   There are 1 MPI processes running on the same node as the root process.
   Each MPI process is using: 
               1 threads for simulation cell FFTs.
               1 threads for parallel FFT box operations.
               6 threads for loops over batched FFT box operations.
               6 threads in other parallel regions.
... done

Basic input checks...
WARNING: The number of FFT boxes in a batch is not a multiple of the number of
OpenMP threads. Consider changing fftbox_batch_size.
... done

Reading geometry and species blocks from file "reac.dat" ...
  <species_atomic_set> block not found: NGWF initialisation set to SOLVE
... done
 Writing xyz coordinates to file "reac.xyz" ... done


--------------------------------------------------------------------------------
---------------------------------- INPUT FILE ----------------------------------
--------------------------------------------------------------------------------

TASK TRANSITIONSTATESEARCH                                                      
charge -1                                                                       
tssearch_cg_max_iter 40                                                         
write_xyz T                                                                     
%BLOCK LATTICE_CART                                                             
40.0 0.0 0.0                                                                    
0.0 40.0 0.0                                                                    
0.0 0.0 40.0                                                                    
%ENDBLOCK LATTICE_CART                                                          
%BLOCK SPECIES                                                                  
C  C   6  4  10.0                                                               
Cl Cl 17  4  10.0                                                               
H  H   1  1  10.0                                                               
F  F   9  4  10.0                                                               
%ENDBLOCK SPECIES                                                               
%BLOCK SPECIES_POT                                                              
C carbon.recpot                                                                 
H hydrogen.recpot                                                               
Cl  chlorine.recpot                                                             
F fluorine.recpot                                                               
%ENDBLOCK SPECIES_POT                                                           
%BLOCK POSITIONS_ABS                                                            
C      19.9979650    20.0001147    19.6506680                                   
H      20.7215465    21.8290354    19.0540470                                   
H      21.2171211    18.4557951    19.0561949                                   
H      18.0510027    19.7139499    19.0582362                                   
Cl     20.0010469    20.0008015    23.2089608                                   
F      20.0008155    19.9998998    15.2974200                                   
%ENDBLOCK POSITIONS_ABS                                                         
%BLOCK POSITIONS_ABS_PRODUCT                                                    
C      20.0016931    19.9997683    20.0623443                                   
H      20.7179299    21.8155704    20.7528364                                   
H      21.2150272    18.4694735    20.7509680                                   
H      18.0718002    19.7128323    20.7550327                                   
Cl     20.0009530    19.9998050    25.7134069                                   
F      20.0004287    20.0007696    17.3725318                                   
%ENDBLOCK POSITIONS_ABS_PRODUCT                                                 
CUTOFF_ENERGY 1000 eV                                                           

--------------------------------------------------------------------------------
-------------------------------- END INPUT FILE --------------------------------
--------------------------------------------------------------------------------


 
WARNING in pseudopotentials_read_species: string "GGA" found in pseudopotential
file "carbon.recpot", yet xc_functional = "LDA".
 
<<<<<<<<<<<<<<<<<<<<<<<<< Pseudopotential information >>>>>>>>>>>>>>>>>>>>>>>>>
File: carbon.recpot [ 2001 points up to Gmax=  52.9 (1/bohr)]
  Atomic number:  6;  ionic charge:  4.000000
    Shell 1: l = 0; rc = 1.48 bohr
File: hydrogen.recpot [ 2001 points up to Gmax=  52.9 (1/bohr)]
  Atomic number:  1;  ionic charge:  1.000000
    Local potential
File: chlorine.recpot [ 2001 points up to Gmax=  52.9 (1/bohr)]
  Atomic number: 17;  ionic charge:  7.000000
    Shell 1: l = 0; rc = 1.72 bohr
    Shell 2: l = 2; rc = 1.78 bohr
File: fluorine.recpot [ 2001 points up to Gmax=  52.9 (1/bohr)]
  Atomic number:  9;  ionic charge:  7.000000
    Shell 1: l = 0; rc = 1.60 bohr
<<<<<<<<<<<<<<<<<<<<<<<<<<<<<<<<<<<<<<< >>>>>>>>>>>>>>>>>>>>>>>>>>>>>>>>>>>>>>>

------------------------- Atom counting information ---------------------------
Symbol    Natoms    Nngwfs    Nprojs
  C          1         4         1
  H          3         3         0
  Cl         1         4         6
  F          1         4         1
.......   ......    ......    ......
Totals:      6        15         8
-------------------------------------------------------------------------------
 
============================== PSINC grid sizes ================================
                      Simulation cell:   91 x  91 x  91
                              FFT-box:   91 x  91 x  91
                                  PPD:    7 x   7 x   1
Grid space d1=  0.439560439560a0 (KE cutoff=  39.31577Eh =1069.83658eV)
Grid space d2=  0.439560439560a0 (KE cutoff=  39.31577Eh =1069.83658eV)
Grid space d3=  0.439560439560a0 (KE cutoff=  39.31577Eh =1069.83658eV)
================================================================================

********************** Fourier parallelisation information *********************
       Coarse grid (whole simulation cell) dimensions:     91    91    91
          Real-space ('12') slabs/node (min max mean):     91    91    91
         Recip-space ('23') slabs/node (min max mean):     46    46    46
********************************************************************************

********************** Fourier parallelisation information *********************
       Double grid (whole simulation cell) dimensions:    182   182   182
          Real-space ('12') slabs/node (min max mean):    182   182   182
         Recip-space ('23') slabs/node (min max mean):     92    92    92
********************************************************************************

WARNING: The number of FFT boxes in a batch is not a multiple of the number of
OpenMP threads. Consider changing fftbox_batch_size.
================================================================================
<<<<<<<<<<<<<<<<<<< Starting ONETEP Transition State Search >>>>>>>>>>>>>>>>>>>>
================================================================================

 Transition State Search: output file is "reac.ts"

  <species_atomic_set> block not found: NGWF initialisation set to SOLVE
++++++++++++++++++++++++++++++++++++++++++++++++++++++++++++++++++++++++++++++++
+++++++++++++++++++++++ Linear synchronous transit method ++++++++++++++++++++++
++++++++++++++++++++++++++++++++++++++++++++++++++++++++++++++++++++++++++++++++
 
 +++++++++++++++++++++++++++++++++++++++++++++++++++++++
 Difference vector: Fractional components 
 +++++++++++++++++++++++++++++++++++++++++++++++++++++++
    0.000093203   -0.000008660    0.010291907
   -0.000090415   -0.000336625    0.042469735
   -0.000052347    0.000341960    0.042369328
    0.000519937   -0.000027940    0.042419913
   -0.000002347   -0.000024913    0.062611152
   -0.000009670    0.000021745    0.051877795
 +++++++++++++++++++++++++++++++++++++++++++++++++++++++
 
 +++++++++++++++++++++++++++++++++++++++++++++++++++++++
 Periodic cell setup complete
 +++++++++++++++++++++++++++++++++++++++++++++++++++++++
 

Determining parallel strategy ...... done
Calculating Ewald energy ...           21.257990 Hartree
Basis initialisation ...... done
Sparse matrix initialisation ... done

Atom SCF Calculation for C  : Z (AE atom) =   6 : Z (PS atom) =   4
Config String:
Orbitals (num,occ):  2     2.00 2.00
Orbitals   (num,l):  2        0    1
Atom SCF converged after  16 iterations to a total energy of     -5.36425964

Atom SCF Calculation for Cl : Z (AE atom) =  17 : Z (PS atom) =   7
Config String:
Orbitals (num,occ):  2     2.00 5.00
Orbitals   (num,l):  2        0    1
Atom SCF converged after  24 iterations to a total energy of    -14.97096711

Atom SCF Calculation for H  : Z (AE atom) =   1 : Z (PS atom) =   1
Config String:
Orbitals (num,occ):  1     1.00
Orbitals   (num,l):  1        0
Atom SCF converged after  17 iterations to a total energy of     -0.44557673

Atom SCF Calculation for F  : Z (AE atom) =   9 : Z (PS atom) =   7
Config String:
Orbitals (num,occ):  2     2.00 5.00
Orbitals   (num,l):  2        0    1
Atom SCF converged after  31 iterations to a total energy of    -24.04868630
NGWF initialisation ...... done
Density renormalisation ...
Target Charge:    22.000000000000 ; Input Charge:    21.000165901718
Up spin density kernel initialisation ...... done                                 

Writing density kernel to file "reac.dkn" ... done

>>> Optimising kernel for current NGWFs:
   iter  |      energy (Eh)       | rms gradient |  commutator  |   dE (Eh)
    1        -4.643442532797E+01     2.2269E-02     1.5184E-02
    2        -4.647832969902E+01     2.0862E-02     1.4224E-02    -4.3904E-02
    3        -4.650080995609E+01     1.4349E-02     9.7831E-03    -2.2480E-02
    4        -4.650982256155E+01     7.5498E-03     5.1476E-03    -9.0126E-03
    5        -4.651281134806E+01     4.5760E-03     3.1200E-03    -2.9888E-03
Finished density kernel iterations (   5)

Writing density kernel to file "reac.dkn" ... done


>>> Density kernel optimised for the current NGWF basis:
     ~~~~~~~~~~~~~~~~~~~~~~~~~~~~~~~~~~~~~~~~~~~~~~~~~~~~~~~~~~~
     Total energy                =  -4.65128113480602E+01  Eh
     RMS occupancy error         =   1.5647E-09
     [H,K] commutator            =   3.1200E-03
     Occupancy bounds            = [  0.000:  1.000]
     ~~~~~~~~~~~~~~~~~~~~~~~~~~~~~~~~~~~~~~~~~~~~~~~~~~~~~~~~~~~




################################################################################
########################### NGWF CG iteration  001 #############################
################################################################################

>>> Checking for convergence of NGWFs:   NOT CONVERGED                        
  ========================================================================
         NGWF RMS gradient =  5.9574E-04 >  2.0000E-06  | above tolerance
  ========================================================================

>>> Improving NGWFs using line search:
  ========================================================================
   Predicted total energy    =      -4.67153186029566E+01 Eh
   Predicted gain in energy  =      -2.02507254896439E-01 Eh
  ========================================================================

Writing NGWFs to file "reac.tightbox_ngwfs"....  done

>>> Optimising kernel for current NGWFs:
   iter  |      energy (Eh)       | rms gradient |  commutator  |   dE (Eh)
    1        -4.671395411092E+01     1.6189E-02     1.1038E-02
    2        -4.673392497179E+01     4.7209E-03     3.2188E-03    -1.9971E-02
    3        -4.673538314748E+01     1.7364E-03     1.1839E-03    -1.4582E-03
    4        -4.673558102798E+01     4.9811E-04     3.3962E-04    -1.9788E-04
    5        -4.673560873093E+01     2.3722E-04     1.6174E-04    -2.7703E-05
Finished density kernel iterations (   5)

Writing density kernel to file "reac.dkn" ... done


>>> Density kernel optimised for the current NGWF basis:
     ~~~~~~~~~~~~~~~~~~~~~~~~~~~~~~~~~~~~~~~~~~~~~~~~~~~~~~~~~~~
     Total energy                =  -4.67356087309347E+01  Eh
     RMS occupancy error         =   1.8971E-09
     [H,K] commutator            =   1.6174E-04
     Occupancy bounds            = [ -0.000:  1.000]
     ~~~~~~~~~~~~~~~~~~~~~~~~~~~~~~~~~~~~~~~~~~~~~~~~~~~~~~~~~~~




################################################################################
########################### NGWF CG iteration  002 #############################
################################################################################

>>> Checking for convergence of NGWFs:   NOT CONVERGED                        
  ========================================================================
         NGWF RMS gradient =  2.6663E-04 >  2.0000E-06  | above tolerance
  ========================================================================

>>> Improving NGWFs using line search:
  ========================================================================
   Predicted total energy    =      -4.67844287210033E+01 Eh
   Predicted gain in energy  =      -4.88199900686226E-02 Eh
  ========================================================================

Writing NGWFs to file "reac.tightbox_ngwfs"....  done

>>> Optimising kernel for current NGWFs:
   iter  |      energy (Eh)       | rms gradient |  commutator  |   dE (Eh)
    1        -4.678433279171E+01     5.3709E-03     3.6620E-03
    2        -4.678652786963E+01     2.8371E-03     1.9344E-03    -2.1951E-03
    3        -4.678705627592E+01     7.4816E-04     5.1011E-04    -5.2841E-04
    4        -4.678711014898E+01     2.8841E-04     1.9664E-04    -5.3873E-05
    5        -4.678711745515E+01     1.0803E-04     7.3654E-05    -7.3062E-06
Finished density kernel iterations (   5)

Writing density kernel to file "reac.dkn" ... done


>>> Density kernel optimised for the current NGWF basis:
     ~~~~~~~~~~~~~~~~~~~~~~~~~~~~~~~~~~~~~~~~~~~~~~~~~~~~~~~~~~~
     Total energy                =  -4.67871174551519E+01  Eh
     RMS occupancy error         =   6.1683E-10
     [H,K] commutator            =   7.3654E-05
     Occupancy bounds            = [  0.000:  1.000]
     ~~~~~~~~~~~~~~~~~~~~~~~~~~~~~~~~~~~~~~~~~~~~~~~~~~~~~~~~~~~




################################################################################
########################### NGWF CG iteration  003 #############################
################################################################################

>>> Checking for convergence of NGWFs:   NOT CONVERGED                        
  ========================================================================
         NGWF RMS gradient =  1.4141E-04 >  2.0000E-06  | above tolerance
  ========================================================================

>>> Improving NGWFs using line search:
  ========================================================================
   Predicted total energy    =      -4.68010642287193E+01 Eh
   Predicted gain in energy  =      -1.39467735673904E-02 Eh
  ========================================================================

Writing NGWFs to file "reac.tightbox_ngwfs"....  done

>>> Optimising kernel for current NGWFs:
   iter  |      energy (Eh)       | rms gradient |  commutator  |   dE (Eh)
    1        -4.680101996484E+01     1.9973E-03     1.3618E-03
    2        -4.680136395573E+01     1.1227E-03     7.6547E-04    -3.4399E-04
    3        -4.680144965436E+01     3.2447E-04     2.2123E-04    -8.5699E-05
    4        -4.680145939514E+01     1.1445E-04     7.8036E-05    -9.7408E-06
    5        -4.680146077536E+01     3.9841E-05     2.7165E-05    -1.3802E-06
Finished density kernel iterations (   5)

Writing density kernel to file "reac.dkn" ... done


>>> Density kernel optimised for the current NGWF basis:
     ~~~~~~~~~~~~~~~~~~~~~~~~~~~~~~~~~~~~~~~~~~~~~~~~~~~~~~~~~~~
     Total energy                =  -4.68014607753597E+01  Eh
     RMS occupancy error         =   2.7043E-11
     [H,K] commutator            =   2.7165E-05
     Occupancy bounds            = [  0.000:  1.000]
     ~~~~~~~~~~~~~~~~~~~~~~~~~~~~~~~~~~~~~~~~~~~~~~~~~~~~~~~~~~~




################################################################################
########################### NGWF CG iteration  004 #############################
################################################################################

>>> Checking for convergence of NGWFs:   NOT CONVERGED                        
  ========================================================================
         NGWF RMS gradient =  8.6947E-05 >  2.0000E-06  | above tolerance
  ========================================================================

>>> Improving NGWFs using line search:
  ========================================================================
   Predicted total energy    =      -4.68069072757085E+01 Eh
   Predicted gain in energy  =      -5.44650034872518E-03 Eh
  ========================================================================

Writing NGWFs to file "reac.tightbox_ngwfs"....  done

>>> Optimising kernel for current NGWFs:
   iter  |      energy (Eh)       | rms gradient |  commutator  |   dE (Eh)
    1        -4.680690141111E+01     4.6236E-04     3.1525E-04
    2        -4.680691787189E+01     2.5020E-04     1.7059E-04    -1.6461E-05
    3        -4.680692279922E+01     8.6124E-05     5.8721E-05    -4.9273E-06
    4        -4.680692349351E+01     2.8000E-05     1.9091E-05    -6.9429E-07
    5        -4.680692357006E+01     7.7254E-06     5.2673E-06    -7.6549E-08
Finished density kernel iterations (   5)

Writing density kernel to file "reac.dkn" ... done


>>> Density kernel optimised for the current NGWF basis:
     ~~~~~~~~~~~~~~~~~~~~~~~~~~~~~~~~~~~~~~~~~~~~~~~~~~~~~~~~~~~
     Total energy                =  -4.68069235700574E+01  Eh
     RMS occupancy error         =   7.1507E-14
     [H,K] commutator            =   5.2673E-06
     Occupancy bounds            = [  0.000:  1.000]
     ~~~~~~~~~~~~~~~~~~~~~~~~~~~~~~~~~~~~~~~~~~~~~~~~~~~~~~~~~~~




################################################################################
########################### NGWF CG iteration  005 #############################
################################################################################

>>> Checking for convergence of NGWFs:   NOT CONVERGED                        
  ========================================================================
         NGWF RMS gradient =  5.7020E-05 >  2.0000E-06  | above tolerance
  ========================================================================

>>> Improving NGWFs using line search:
  ========================================================================
   Predicted total energy    =      -4.68085781308376E+01 Eh
   Predicted gain in energy  =      -1.65456078020298E-03 Eh
  ========================================================================

Writing NGWFs to file "reac.tightbox_ngwfs"....  done

>>> Optimising kernel for current NGWFs:
   iter  |      energy (Eh)       | rms gradient |  commutator  |   dE (Eh)
    1        -4.680857842412E+01     1.4775E-04     1.0074E-04
    2        -4.680858014500E+01     3.4410E-05     2.3461E-05    -1.7209E-06
    3        -4.680858026265E+01     1.3101E-05     8.9325E-06    -1.1766E-07
    4        -4.680858027608E+01     6.8560E-06     4.6746E-06    -1.3424E-08
    5        -4.680858028014E+01     2.2647E-06     1.5441E-06    -4.0636E-09
Finished density kernel iterations (   5)

Writing density kernel to file "reac.dkn" ... done


>>> Density kernel optimised for the current NGWF basis:
     ~~~~~~~~~~~~~~~~~~~~~~~~~~~~~~~~~~~~~~~~~~~~~~~~~~~~~~~~~~~
     Total energy                =  -4.68085802801408E+01  Eh
     RMS occupancy error         =   3.5180E-16
     [H,K] commutator            =   1.5441E-06
     Occupancy bounds            = [ -0.000:  1.000]
     ~~~~~~~~~~~~~~~~~~~~~~~~~~~~~~~~~~~~~~~~~~~~~~~~~~~~~~~~~~~




################################################################################
########################### NGWF CG iteration  006 #############################
################################################################################

>>> Checking for convergence of NGWFs:   NOT CONVERGED                        
  ========================================================================
         NGWF RMS gradient =  3.8897E-05 >  2.0000E-06  | above tolerance
  ========================================================================

>>> Improving NGWFs using line search:
  ========================================================================
   Predicted total energy    =      -4.68097560833498E+01 Eh
   Predicted gain in energy  =      -1.17580320897304E-03 Eh
  ========================================================================

Writing NGWFs to file "reac.tightbox_ngwfs"....  done

>>> Optimising kernel for current NGWFs:
   iter  |      energy (Eh)       | rms gradient |  commutator  |   dE (Eh)
    1        -4.680975487511E+01     2.3397E-04     1.5952E-04
    2        -4.680975977860E+01     7.1450E-05     4.8716E-05    -4.9035E-06
    3        -4.680976022688E+01     2.5848E-05     1.7624E-05    -4.4828E-07
    4        -4.680976026834E+01     7.7918E-06     5.3126E-06    -4.1464E-08
    5        -4.680976027445E+01     2.7754E-06     1.8923E-06    -6.1048E-09
Finished density kernel iterations (   5)

Writing density kernel to file "reac.dkn" ... done


>>> Density kernel optimised for the current NGWF basis:
     ~~~~~~~~~~~~~~~~~~~~~~~~~~~~~~~~~~~~~~~~~~~~~~~~~~~~~~~~~~~
     Total energy                =  -4.68097602744460E+01  Eh
     RMS occupancy error         =   3.8897E-16
     [H,K] commutator            =   1.8923E-06
     Occupancy bounds            = [  0.000:  1.000]
     ~~~~~~~~~~~~~~~~~~~~~~~~~~~~~~~~~~~~~~~~~~~~~~~~~~~~~~~~~~~




################################################################################
########################### NGWF CG iteration  007 #############################
################################################################################

>>> Checking for convergence of NGWFs:   NOT CONVERGED                        
  ========================================================================
         NGWF RMS gradient =  2.8168E-05 >  2.0000E-06  | above tolerance
  ========================================================================

>>> Improving NGWFs using line search:
  ========================================================================
   Predicted total energy    =      -4.68104060293840E+01 Eh
   Predicted gain in energy  =      -6.45754938005894E-04 Eh
  ========================================================================

Writing NGWFs to file "reac.tightbox_ngwfs"....  done

>>> Optimising kernel for current NGWFs:
   iter  |      energy (Eh)       | rms gradient |  commutator  |   dE (Eh)
    1        -4.681040496210E+01     1.4130E-04     9.6342E-05
    2        -4.681040653742E+01     6.9707E-05     4.7527E-05    -1.5753E-06
    3        -4.681040695416E+01     3.0124E-05     2.0539E-05    -4.1673E-07
    4        -4.681040703571E+01     1.0077E-05     6.8709E-06    -8.1550E-08
    5        -4.681040704730E+01     3.2856E-06     2.2402E-06    -1.1592E-08
Finished density kernel iterations (   5)

Writing density kernel to file "reac.dkn" ... done


>>> Density kernel optimised for the current NGWF basis:
     ~~~~~~~~~~~~~~~~~~~~~~~~~~~~~~~~~~~~~~~~~~~~~~~~~~~~~~~~~~~
     Total energy                =  -4.68104070473002E+01  Eh
     RMS occupancy error         =   1.7003E-15
     [H,K] commutator            =   2.2402E-06
     Occupancy bounds            = [  0.000:  1.000]
     ~~~~~~~~~~~~~~~~~~~~~~~~~~~~~~~~~~~~~~~~~~~~~~~~~~~~~~~~~~~




################################################################################
########################### NGWF CG iteration  008 #############################
################################################################################

>>> Checking for convergence of NGWFs:   NOT CONVERGED                        
  ========================================================================
         NGWF RMS gradient =  2.0995E-05 >  2.0000E-06  | above tolerance
  ========================================================================

>>> Improving NGWFs using line search:
  ========================================================================
   Predicted total energy    =      -4.68107273091204E+01 Eh
   Predicted gain in energy  =      -3.20261820220935E-04 Eh
  ========================================================================

Writing NGWFs to file "reac.tightbox_ngwfs"....  done

>>> Optimising kernel for current NGWFs:
   iter  |      energy (Eh)       | rms gradient |  commutator  |   dE (Eh)
    1        -4.681072545234E+01     1.9312E-04     1.3167E-04
    2        -4.681072859845E+01     9.9680E-05     6.7963E-05    -3.1461E-06
    3        -4.681072954935E+01     4.1439E-05     2.8254E-05    -9.5090E-07
    4        -4.681072968870E+01     4.0071E-05     2.7321E-05    -1.3934E-07
    5        -4.681072971006E+01     3.1933E-05     2.1773E-05    -2.1361E-08
Finished density kernel iterations (   5)

Writing density kernel to file "reac.dkn" ... done


>>> Density kernel optimised for the current NGWF basis:
     ~~~~~~~~~~~~~~~~~~~~~~~~~~~~~~~~~~~~~~~~~~~~~~~~~~~~~~~~~~~
     Total energy                =  -4.68107297100589E+01  Eh
     RMS occupancy error         =   2.0104E-13
     [H,K] commutator            =   2.1773E-05
     Occupancy bounds            = [  0.000:  1.000]
     ~~~~~~~~~~~~~~~~~~~~~~~~~~~~~~~~~~~~~~~~~~~~~~~~~~~~~~~~~~~




################################################################################
########################### NGWF CG iteration  009 #############################
################################################################################

>>> Checking for convergence of NGWFs:   NOT CONVERGED                        
  ========================================================================
         NGWF RMS gradient =  1.4829E-05 >  2.0000E-06  | above tolerance
  ========================================================================

>>> Improving NGWFs using line search:
  ========================================================================
   Predicted total energy    =      -4.68108355285531E+01 Eh
   Predicted gain in energy  =      -1.05818494212429E-04 Eh
  ========================================================================

Writing NGWFs to file "reac.tightbox_ngwfs"....  done

>>> Optimising kernel for current NGWFs:
   iter  |      energy (Eh)       | rms gradient |  commutator  |   dE (Eh)
    1        -4.681083461762E+01     1.2283E-04     8.3749E-05
    2        -4.681083581392E+01     5.0767E-05     3.4614E-05    -1.1963E-06
    3        -4.681083611893E+01     4.7965E-05     3.2704E-05    -3.0501E-07
    4        -4.681083605003E+01     4.2248E-05     2.8805E-05     6.8899E-08
    5        -4.681083612132E+01     2.6505E-05     1.8071E-05    -7.1291E-08
Finished density kernel iterations (   5)

Writing density kernel to file "reac.dkn" ... done


>>> Density kernel optimised for the current NGWF basis:
     ~~~~~~~~~~~~~~~~~~~~~~~~~~~~~~~~~~~~~~~~~~~~~~~~~~~~~~~~~~~
     Total energy                =  -4.68108361213217E+01  Eh
     RMS occupancy error         =   9.0577E-14
     [H,K] commutator            =   1.8071E-05
     Occupancy bounds            = [  0.000:  1.000]
     ~~~~~~~~~~~~~~~~~~~~~~~~~~~~~~~~~~~~~~~~~~~~~~~~~~~~~~~~~~~




################################################################################
########################### NGWF CG iteration  010 #############################
################################################################################

>>> Checking for convergence of NGWFs:   NOT CONVERGED                        
  ========================================================================
         NGWF RMS gradient =  9.1631E-06 >  2.0000E-06  | above tolerance
  ========================================================================

>>> Improving NGWFs using line search:
  ========================================================================
   Predicted total energy    =      -4.68108966536386E+01 Eh
   Predicted gain in energy  =      -6.05323168940686E-05 Eh
  ========================================================================

Writing NGWFs to file "reac.tightbox_ngwfs"....  done

>>> Optimising kernel for current NGWFs:
   iter  |      energy (Eh)       | rms gradient |  commutator  |   dE (Eh)
    1        -4.681089405585E+01     1.2430E-04     8.4750E-05
    2        -4.681089539576E+01     9.3313E-05     6.3623E-05    -1.3399E-06
    3        -4.681089573264E+01     4.5274E-05     3.0869E-05    -3.3688E-07
    4        -4.681089585398E+01     1.9567E-05     1.3341E-05    -1.2134E-07
    5        -4.681089588232E+01     1.1444E-05     7.8030E-06    -2.8339E-08
Finished density kernel iterations (   5)

Writing density kernel to file "reac.dkn" ... done


>>> Density kernel optimised for the current NGWF basis:
     ~~~~~~~~~~~~~~~~~~~~~~~~~~~~~~~~~~~~~~~~~~~~~~~~~~~~~~~~~~~
     Total energy                =  -4.68108958823229E+01  Eh
     RMS occupancy error         =   1.1669E-14
     [H,K] commutator            =   7.8030E-06
     Occupancy bounds            = [  0.000:  1.000]
     ~~~~~~~~~~~~~~~~~~~~~~~~~~~~~~~~~~~~~~~~~~~~~~~~~~~~~~~~~~~




################################################################################
########################### NGWF CG iteration  011 #############################
################################################################################

>>> Checking for convergence of NGWFs:   NOT CONVERGED                        
  ========================================================================
         NGWF RMS gradient =  6.6759E-06 >  2.0000E-06  | above tolerance
  ========================================================================

>>> Improving NGWFs using line search:
  ========================================================================
   Predicted total energy    =      -4.68109297832966E+01 Eh
   Predicted gain in energy  =      -3.39009736833873E-05 Eh
  ========================================================================

Writing NGWFs to file "reac.tightbox_ngwfs"....  done

>>> Optimising kernel for current NGWFs:
   iter  |      energy (Eh)       | rms gradient |  commutator  |   dE (Eh)
    1        -4.681092623651E+01     7.3599E-05     5.0181E-05
    2        -4.681092663818E+01     3.0330E-05     2.0679E-05    -4.0167E-07
    3        -4.681092676310E+01     1.7040E-05     1.1618E-05    -1.2492E-07
    4        -4.681092678503E+01     3.6453E-06     2.4854E-06    -2.1935E-08
    5        -4.681092678675E+01     1.4490E-06     9.8794E-07    -1.7159E-09
Finished density kernel iterations (   5)

Writing density kernel to file "reac.dkn" ... done


>>> Density kernel optimised for the current NGWF basis:
     ~~~~~~~~~~~~~~~~~~~~~~~~~~~~~~~~~~~~~~~~~~~~~~~~~~~~~~~~~~~
     Total energy                =  -4.68109267867498E+01  Eh
     RMS occupancy error         =   3.1368E-16
     [H,K] commutator            =   9.8794E-07
     Occupancy bounds            = [  0.000:  1.000]
     ~~~~~~~~~~~~~~~~~~~~~~~~~~~~~~~~~~~~~~~~~~~~~~~~~~~~~~~~~~~




################################################################################
########################### NGWF CG iteration  012 #############################
################################################################################

>>> Checking for convergence of NGWFs:   NOT CONVERGED                        
  ========================================================================
         NGWF RMS gradient =  4.3704E-06 >  2.0000E-06  | above tolerance
  ========================================================================

>>> Improving NGWFs using line search:
  ========================================================================
   Predicted total energy    =      -4.68109362347310E+01 Eh
   Predicted gain in energy  =      -9.44798118496237E-06 Eh
  ========================================================================

Writing NGWFs to file "reac.tightbox_ngwfs"....  done

>>> Optimising kernel for current NGWFs:
   iter  |      energy (Eh)       | rms gradient |  commutator  |   dE (Eh)
    1        -4.681093450545E+01     4.3999E-05     2.9999E-05
    2        -4.681093466582E+01     1.8916E-05     1.2897E-05    -1.6037E-07
    3        -4.681093471555E+01     9.2947E-06     6.3373E-06    -4.9727E-08
    4        -4.681093472198E+01     2.9274E-06     1.9960E-06    -6.4373E-09
    5        -4.681093472289E+01     9.6742E-07     6.5960E-07    -9.0547E-10
Finished density kernel iterations (   5)

Writing density kernel to file "reac.dkn" ... done


>>> Density kernel optimised for the current NGWF basis:
     ~~~~~~~~~~~~~~~~~~~~~~~~~~~~~~~~~~~~~~~~~~~~~~~~~~~~~~~~~~~
     Total energy                =  -4.68109347228896E+01  Eh
     RMS occupancy error         =   2.6062E-16
     [H,K] commutator            =   6.5960E-07
     Occupancy bounds            = [ -0.000:  1.000]
     ~~~~~~~~~~~~~~~~~~~~~~~~~~~~~~~~~~~~~~~~~~~~~~~~~~~~~~~~~~~




################################################################################
########################### NGWF CG iteration  013 #############################
################################################################################

>>> Checking for convergence of NGWFs:   NOT CONVERGED                        
  ========================================================================
         NGWF RMS gradient =  3.2024E-06 >  2.0000E-06  | above tolerance
  ========================================================================

>>> Improving NGWFs using line search:
  ========================================================================
   Predicted total energy    =      -4.68109427362363E+01 Eh
   Predicted gain in energy  =      -8.01334674349619E-06 Eh
  ========================================================================

Writing NGWFs to file "reac.tightbox_ngwfs"....  done

>>> Optimising kernel for current NGWFs:
   iter  |      energy (Eh)       | rms gradient |  commutator  |   dE (Eh)
    1        -4.681094155363E+01     4.9423E-05     3.3697E-05
    2        -4.681094177844E+01     2.1344E-05     1.4553E-05    -2.2481E-07
    3        -4.681094191552E+01     8.6473E-06     5.8959E-06    -1.3708E-07
    4        -4.681094192129E+01     4.1221E-06     2.8105E-06    -5.7748E-09
    5        -4.681094192287E+01     1.4971E-06     1.0207E-06    -1.5793E-09
Finished density kernel iterations (   5)

Writing density kernel to file "reac.dkn" ... done


>>> Density kernel optimised for the current NGWF basis:
     ~~~~~~~~~~~~~~~~~~~~~~~~~~~~~~~~~~~~~~~~~~~~~~~~~~~~~~~~~~~
     Total energy                =  -4.68109419228739E+01  Eh
     RMS occupancy error         =   2.8919E-16
     [H,K] commutator            =   1.0207E-06
     Occupancy bounds            = [  0.000:  1.000]
     ~~~~~~~~~~~~~~~~~~~~~~~~~~~~~~~~~~~~~~~~~~~~~~~~~~~~~~~~~~~




################################################################################
########################### NGWF CG iteration  014 #############################
################################################################################

>>> Checking for convergence of NGWFs:   NOT CONVERGED                        
  ========================================================================
         NGWF RMS gradient =  2.4423E-06 >  2.0000E-06  | above tolerance
  ========================================================================

>>> Improving NGWFs using line search:
  ========================================================================
   Predicted total energy    =      -4.68109448249024E+01 Eh
   Predicted gain in energy  =      -2.90202859076771E-06 Eh
  ========================================================================

Writing NGWFs to file "reac.tightbox_ngwfs"....  done

>>> Optimising kernel for current NGWFs:
   iter  |      energy (Eh)       | rms gradient |  commutator  |   dE (Eh)
    1        -4.681094323120E+01     4.4421E-05     3.0287E-05
    2        -4.681094342054E+01     4.2004E-05     2.8639E-05    -1.8933E-07
    3        -4.681094344105E+01     3.8801E-05     2.6455E-05    -2.0507E-08
    4        -4.681094353729E+01     9.3781E-06     6.3941E-06    -9.6241E-08
    5        -4.681094354373E+01     4.5532E-06     3.1045E-06    -6.4411E-09
Finished density kernel iterations (   5)

Writing density kernel to file "reac.dkn" ... done


>>> Density kernel optimised for the current NGWF basis:
     ~~~~~~~~~~~~~~~~~~~~~~~~~~~~~~~~~~~~~~~~~~~~~~~~~~~~~~~~~~~
     Total energy                =  -4.68109435437276E+01  Eh
     RMS occupancy error         =   6.9024E-16
     [H,K] commutator            =   3.1045E-06
     Occupancy bounds            = [  0.000:  1.000]
     ~~~~~~~~~~~~~~~~~~~~~~~~~~~~~~~~~~~~~~~~~~~~~~~~~~~~~~~~~~~




################################################################################
########################### NGWF CG iteration  015 #############################
################################################################################

>>> Checking for convergence of NGWFs:                                        
           ........................................................
           |         *** NGWF optimisation converged ***          |
           | RMS NGWF gradient =    0.00000028175838              |
           | Criteria satisfied:                                  |
           | -> RMS NGWF gradient lower than set threshold.       |
           ========================================================

================================================================================
           ---------------- ENERGY COMPONENTS (Eh) ----------------
           | Kinetic                    :       27.62160453105176 |
           | Pseudopotential (local)    :     -154.86959501646464 |
           | Pseudopotential (non-local):        4.80059797835399 |
           | Hartree                    :       64.68078629411934 |
           | Exchange-correlation       :      -10.30232731358893 |
           | Ewald                      :       21.25798998280087 |
           | Total                      :      -46.81094354372761 |
           --------------------------------------------------------
           Integrated density           :       21.99999999998898
================================================================================


                    <<<<< CALCULATION SUMMARY >>>>>
|ITER|    RMS GRADIENT   |     TOTAL ENERGY    |   step   |     Epredicted      
   0     0.00059574126967    -46.51281134806020   1.542520    -46.71531860295664
   1     0.00026662651846    -46.73560873093472   1.709943    -46.78442872100334
   2     0.00014140990547    -46.78711745515186   1.779280    -46.80106422871926
   3     0.00008694705376    -46.80146077535974   1.891735    -46.80690727570846
   4     0.00005701966292    -46.80692357005742   1.375749    -46.80857813083762
   5     0.00003889749316    -46.80858028014084   2.098418    -46.80975608334981
   6     0.00002816766809    -46.80976027444603   2.193501    -46.81040602938404
   7     0.00002099542480    -46.81040704730022   1.962744    -46.81072730912044
   8     0.00001482933656    -46.81072971005886   1.300840    -46.81083552855307
   9     0.00000916313284    -46.81083612132173   1.924898    -46.81089665363863
  10     0.00000667588750    -46.81089588232291   2.058424    -46.81092978329659
  11     0.00000437039954    -46.81092678674977   1.471444    -46.81093623473096
  12     0.00000320241349    -46.81093472288956   2.112345    -46.81094273623630
  13     0.00000244232008    -46.81094192287386   1.496268    -46.81094482490245
  14     0.00000028175838    -46.81094354372762  <-- CG                         
 +++++++++++++++++++++++++++++++++++++++++++++++++++++++
 Reactant                      
 Path coordinate:                         0.00000
 Energy:                                -46.81094 Ha                            
 +++++++++++++++++++++++++++++++++++++++++++++++++++++++
 
            ++++++++++++++++++++++++++++++++++++++++++++++++++++++++++++++++++++
                             Coordinates: Fractional components
            ++++++++++++++++++++++++++++++++++++++++++++++++++++++++++++++++++++
            +  Element    Atom                                                 +
            +            Number           x          y          z              +
            ++++++++++++++++++++++++++++++++++++++++++++++++++++++++++++++++++++
            +    C         1          0.499949   0.500003   0.491267           +
            +    H         2          0.518039   0.545726   0.476351           +
            +    H         3          0.530428   0.461395   0.476405           +
            +    H         4          0.451275   0.492849   0.476456           +
            +    Cl        5          0.500026   0.500020   0.580224           +
            +    F         6          0.500020   0.499997   0.382435           +
            ++++++++++++++++++++++++++++++++++++++++++++++++++++++++++++++++++++
                           Forces: Cartesian components: Ha/Bohr                       
            ++++++++++++++++++++++++++++++++++++++++++++++++++++++++++++++++++++
            +  Element    Atom                                                 +
            +            Number           x          y          z              +
            ++++++++++++++++++++++++++++++++++++++++++++++++++++++++++++++++++++
            +    C         1         -0.000047   0.000001  -0.000709           +
            +    H         2          0.000071  -0.000217   0.000133           +
            +    H         3         -0.000012   0.000200   0.000090           +
            +    H         4          0.000022  -0.000005   0.000101           +
            +    Cl        5         -0.000010   0.000024   0.000330           +
            +    F         6         -0.000024  -0.000003   0.000056           +
            ++++++++++++++++++++++++++++++++++++++++++++++++++++++++++++++++++++
 

Determining parallel strategy ...... done
Calculating Ewald energy ...           21.789230 Hartree
Basis initialisation ...... done
Sparse matrix initialisation ... done

Atom SCF Calculation for C  : Z (AE atom) =   6 : Z (PS atom) =   4
Config String:
Orbitals (num,occ):  2     2.00 2.00
Orbitals   (num,l):  2        0    1
Atom SCF converged after  16 iterations to a total energy of     -5.36425964

Atom SCF Calculation for Cl : Z (AE atom) =  17 : Z (PS atom) =   7
Config String:
Orbitals (num,occ):  2     2.00 5.00
Orbitals   (num,l):  2        0    1
Atom SCF converged after  24 iterations to a total energy of    -14.97096711

Atom SCF Calculation for H  : Z (AE atom) =   1 : Z (PS atom) =   1
Config String:
Orbitals (num,occ):  1     1.00
Orbitals   (num,l):  1        0
Atom SCF converged after  17 iterations to a total energy of     -0.44557673

Atom SCF Calculation for F  : Z (AE atom) =   9 : Z (PS atom) =   7
Config String:
Orbitals (num,occ):  2     2.00 5.00
Orbitals   (num,l):  2        0    1
Atom SCF converged after  31 iterations to a total energy of    -24.04868630
NGWF initialisation ...... done
Density renormalisation ...
Target Charge:    22.000000000000 ; Input Charge:    21.000174884146
Up spin density kernel initialisation ...... done                                 

Writing density kernel to file "reac.dkn" ... done

>>> Optimising kernel for current NGWFs:
   iter  |      energy (Eh)       | rms gradient |  commutator  |   dE (Eh)
    1        -4.648867305968E+01     2.5286E-02     1.7241E-02
    2        -4.651923199431E+01     7.2985E-03     4.9763E-03    -3.0559E-02
    3        -4.652683219323E+01     6.5879E-03     4.4918E-03    -7.6002E-03
    4        -4.653038648866E+01     3.3578E-03     2.2894E-03    -3.5543E-03
    5        -4.653110858723E+01     1.5915E-03     1.0851E-03    -7.2210E-04
Finished density kernel iterations (   5)

Writing density kernel to file "reac.dkn" ... done


>>> Density kernel optimised for the current NGWF basis:
     ~~~~~~~~~~~~~~~~~~~~~~~~~~~~~~~~~~~~~~~~~~~~~~~~~~~~~~~~~~~
     Total energy                =  -4.65311085872298E+01  Eh
     RMS occupancy error         =   2.3154E-11
     [H,K] commutator            =   1.0851E-03
     Occupancy bounds            = [  0.000:  1.000]
     ~~~~~~~~~~~~~~~~~~~~~~~~~~~~~~~~~~~~~~~~~~~~~~~~~~~~~~~~~~~




################################################################################
########################### NGWF CG iteration  001 #############################
################################################################################

>>> Checking for convergence of NGWFs:   NOT CONVERGED                        
  ========================================================================
         NGWF RMS gradient =  6.2701E-04 >  2.0000E-06  | above tolerance
  ========================================================================

>>> Improving NGWFs using line search:
  ========================================================================
   Predicted total energy    =      -4.67578837732471E+01 Eh
   Predicted gain in energy  =      -2.26775186017299E-01 Eh
  ========================================================================

Writing NGWFs to file "reac.tightbox_ngwfs"....  done

>>> Optimising kernel for current NGWFs:
   iter  |      energy (Eh)       | rms gradient |  commutator  |   dE (Eh)
    1        -4.675767921654E+01     1.3930E-02     9.4976E-03
    2        -4.676722774211E+01     5.6778E-03     3.8712E-03    -9.5485E-03
    3        -4.676956847648E+01     2.4397E-03     1.6635E-03    -2.3407E-03
    4        -4.677010453176E+01     8.7858E-04     5.9903E-04    -5.3606E-04
    5        -4.677014772723E+01     2.8368E-04     1.9342E-04    -4.3195E-05
Finished density kernel iterations (   5)

Writing density kernel to file "reac.dkn" ... done


>>> Density kernel optimised for the current NGWF basis:
     ~~~~~~~~~~~~~~~~~~~~~~~~~~~~~~~~~~~~~~~~~~~~~~~~~~~~~~~~~~~
     Total energy                =  -4.67701477272327E+01  Eh
     RMS occupancy error         =   5.8805E-09
     [H,K] commutator            =   1.9342E-04
     Occupancy bounds            = [  0.000:  1.000]
     ~~~~~~~~~~~~~~~~~~~~~~~~~~~~~~~~~~~~~~~~~~~~~~~~~~~~~~~~~~~




################################################################################
########################### NGWF CG iteration  002 #############################
################################################################################

>>> Checking for convergence of NGWFs:   NOT CONVERGED                        
  ========================================================================
         NGWF RMS gradient =  2.7628E-04 >  2.0000E-06  | above tolerance
  ========================================================================

>>> Improving NGWFs using line search:
  ========================================================================
   Predicted total energy    =      -4.68187957012130E+01 Eh
   Predicted gain in energy  =      -4.86479739803514E-02 Eh
  ========================================================================

Writing NGWFs to file "reac.tightbox_ngwfs"....  done

>>> Optimising kernel for current NGWFs:
   iter  |      energy (Eh)       | rms gradient |  commutator  |   dE (Eh)
    1        -4.681894013966E+01     4.9586E-03     3.3809E-03
    2        -4.682002492355E+01     1.8214E-03     1.2418E-03    -1.0848E-03
    3        -4.682028518633E+01     7.7475E-04     5.2824E-04    -2.6026E-04
    4        -4.682035331971E+01     2.6075E-04     1.7778E-04    -6.8133E-05
    5        -4.682035745083E+01     1.0813E-04     7.3726E-05    -4.1311E-06
Finished density kernel iterations (   5)

Writing density kernel to file "reac.dkn" ... done


>>> Density kernel optimised for the current NGWF basis:
     ~~~~~~~~~~~~~~~~~~~~~~~~~~~~~~~~~~~~~~~~~~~~~~~~~~~~~~~~~~~
     Total energy                =  -4.68203574508349E+01  Eh
     RMS occupancy error         =   3.3289E-10
     [H,K] commutator            =   7.3726E-05
     Occupancy bounds            = [  0.000:  1.000]
     ~~~~~~~~~~~~~~~~~~~~~~~~~~~~~~~~~~~~~~~~~~~~~~~~~~~~~~~~~~~




################################################################################
########################### NGWF CG iteration  003 #############################
################################################################################

>>> Checking for convergence of NGWFs:   NOT CONVERGED                        
  ========================================================================
         NGWF RMS gradient =  1.4111E-04 >  2.0000E-06  | above tolerance
  ========================================================================

>>> Improving NGWFs using line search:
  ========================================================================
   Predicted total energy    =      -4.68337121084778E+01 Eh
   Predicted gain in energy  =      -1.33546576429211E-02 Eh
  ========================================================================

Writing NGWFs to file "reac.tightbox_ngwfs"....  done

>>> Optimising kernel for current NGWFs:
   iter  |      energy (Eh)       | rms gradient |  commutator  |   dE (Eh)
    1        -4.683372763392E+01     2.2823E-03     1.5561E-03
    2        -4.683395745741E+01     7.1004E-04     4.8412E-04    -2.2982E-04
    3        -4.683398946555E+01     2.2333E-04     1.5227E-04    -3.2008E-05
    4        -4.683399590940E+01     1.2173E-04     8.2999E-05    -6.4439E-06
    5        -4.683399672514E+01     3.1244E-05     2.1303E-05    -8.1574E-07
Finished density kernel iterations (   5)

Writing density kernel to file "reac.dkn" ... done


>>> Density kernel optimised for the current NGWF basis:
     ~~~~~~~~~~~~~~~~~~~~~~~~~~~~~~~~~~~~~~~~~~~~~~~~~~~~~~~~~~~
     Total energy                =  -4.68339967251447E+01  Eh
     RMS occupancy error         =   1.0957E-11
     [H,K] commutator            =   2.1303E-05
     Occupancy bounds            = [  0.000:  1.000]
     ~~~~~~~~~~~~~~~~~~~~~~~~~~~~~~~~~~~~~~~~~~~~~~~~~~~~~~~~~~~




################################################################################
########################### NGWF CG iteration  004 #############################
################################################################################

>>> Checking for convergence of NGWFs:   NOT CONVERGED                        
  ========================================================================
         NGWF RMS gradient =  8.1717E-05 >  2.0000E-06  | above tolerance
  ========================================================================

>>> Improving NGWFs using line search:
  ========================================================================
   Predicted total energy    =      -4.68388112787944E+01 Eh
   Predicted gain in energy  =      -4.81455364974437E-03 Eh
  ========================================================================

Writing NGWFs to file "reac.tightbox_ngwfs"....  done

>>> Optimising kernel for current NGWFs:
   iter  |      energy (Eh)       | rms gradient |  commutator  |   dE (Eh)
    1        -4.683880925314E+01     7.1835E-04     4.8979E-04
    2        -4.683883191916E+01     2.2661E-04     1.5451E-04    -2.2666E-05
    3        -4.683883559896E+01     9.0269E-05     6.1547E-05    -3.6798E-06
    4        -4.683883658892E+01     4.7410E-05     3.2325E-05    -9.8996E-07
    5        -4.683883678436E+01     2.7556E-05     1.8789E-05    -1.9544E-07
Finished density kernel iterations (   5)

Writing density kernel to file "reac.dkn" ... done


>>> Density kernel optimised for the current NGWF basis:
     ~~~~~~~~~~~~~~~~~~~~~~~~~~~~~~~~~~~~~~~~~~~~~~~~~~~~~~~~~~~
     Total energy                =  -4.68388367843614E+01  Eh
     RMS occupancy error         =   7.3455E-13
     [H,K] commutator            =   1.8789E-05
     Occupancy bounds            = [  0.000:  1.000]
     ~~~~~~~~~~~~~~~~~~~~~~~~~~~~~~~~~~~~~~~~~~~~~~~~~~~~~~~~~~~




################################################################################
########################### NGWF CG iteration  005 #############################
################################################################################

>>> Checking for convergence of NGWFs:   NOT CONVERGED                        
  ========================================================================
         NGWF RMS gradient =  5.3673E-05 >  2.0000E-06  | above tolerance
  ========================================================================

>>> Improving NGWFs using line search:
  ========================================================================
   Predicted total energy    =      -4.68402491291199E+01 Eh
   Predicted gain in energy  =      -1.41234475843532E-03 Eh
  ========================================================================

Writing NGWFs to file "reac.tightbox_ngwfs"....  done

>>> Optimising kernel for current NGWFs:
   iter  |      energy (Eh)       | rms gradient |  commutator  |   dE (Eh)
    1        -4.684024852587E+01     9.7428E-05     6.6428E-05
    2        -4.684024917024E+01     4.3179E-05     2.9440E-05    -6.4437E-07
    3        -4.684024926922E+01     1.3355E-05     9.1054E-06    -9.8976E-08
    4        -4.684024928709E+01     6.7865E-06     4.6272E-06    -1.7871E-08
    5        -4.684024929090E+01     2.9847E-06     2.0350E-06    -3.8071E-09
Finished density kernel iterations (   5)

Writing density kernel to file "reac.dkn" ... done


>>> Density kernel optimised for the current NGWF basis:
     ~~~~~~~~~~~~~~~~~~~~~~~~~~~~~~~~~~~~~~~~~~~~~~~~~~~~~~~~~~~
     Total energy                =  -4.68402492908957E+01  Eh
     RMS occupancy error         =   2.6357E-16
     [H,K] commutator            =   2.0350E-06
     Occupancy bounds            = [  0.000:  1.000]
     ~~~~~~~~~~~~~~~~~~~~~~~~~~~~~~~~~~~~~~~~~~~~~~~~~~~~~~~~~~~




################################################################################
########################### NGWF CG iteration  006 #############################
################################################################################

>>> Checking for convergence of NGWFs:   NOT CONVERGED                        
  ========================================================================
         NGWF RMS gradient =  3.6019E-05 >  2.0000E-06  | above tolerance
  ========================================================================

>>> Improving NGWFs using line search:
  ========================================================================
   Predicted total energy    =      -4.68413409831244E+01 Eh
   Predicted gain in energy  =      -1.09169222866967E-03 Eh
  ========================================================================

Writing NGWFs to file "reac.tightbox_ngwfs"....  done

>>> Optimising kernel for current NGWFs:
   iter  |      energy (Eh)       | rms gradient |  commutator  |   dE (Eh)
    1        -4.684133617277E+01     1.6619E-04     1.1331E-04
    2        -4.684133803921E+01     8.2080E-05     5.5964E-05    -1.8664E-06
    3        -4.684133843683E+01     3.0757E-05     2.0971E-05    -3.9761E-07
    4        -4.684133849162E+01     2.1279E-05     1.4508E-05    -5.4787E-08
    5        -4.684133851307E+01     1.6308E-05     1.1119E-05    -2.1456E-08
Finished density kernel iterations (   5)

Writing density kernel to file "reac.dkn" ... done


>>> Density kernel optimised for the current NGWF basis:
     ~~~~~~~~~~~~~~~~~~~~~~~~~~~~~~~~~~~~~~~~~~~~~~~~~~~~~~~~~~~
     Total energy                =  -4.68413385130730E+01  Eh
     RMS occupancy error         =   2.8038E-16
     [H,K] commutator            =   1.1119E-05
     Occupancy bounds            = [ -0.000:  1.000]
     ~~~~~~~~~~~~~~~~~~~~~~~~~~~~~~~~~~~~~~~~~~~~~~~~~~~~~~~~~~~




################################################################################
########################### NGWF CG iteration  007 #############################
################################################################################

>>> Checking for convergence of NGWFs:   NOT CONVERGED                        
  ========================================================================
         NGWF RMS gradient =  2.8531E-05 >  2.0000E-06  | above tolerance
  ========================================================================

>>> Improving NGWFs using line search:
  ========================================================================
   Predicted total energy    =      -4.68419587251061E+01 Eh
   Predicted gain in energy  =      -6.20212033147993E-04 Eh
  ========================================================================

Writing NGWFs to file "reac.tightbox_ngwfs"....  done

>>> Optimising kernel for current NGWFs:
   iter  |      energy (Eh)       | rms gradient |  commutator  |   dE (Eh)
    1        -4.684195351969E+01     1.4829E-04     1.0110E-04
    2        -4.684195486560E+01     7.8399E-05     5.3454E-05    -1.3459E-06
    3        -4.684195536158E+01     3.7173E-05     2.5345E-05    -4.9598E-07
    4        -4.684195549692E+01     1.2679E-05     8.6451E-06    -1.3534E-07
    5        -4.684195550732E+01     3.8213E-06     2.6054E-06    -1.0398E-08
Finished density kernel iterations (   5)

Writing density kernel to file "reac.dkn" ... done


>>> Density kernel optimised for the current NGWF basis:
     ~~~~~~~~~~~~~~~~~~~~~~~~~~~~~~~~~~~~~~~~~~~~~~~~~~~~~~~~~~~
     Total energy                =  -4.68419555073198E+01  Eh
     RMS occupancy error         =   9.4978E-16
     [H,K] commutator            =   2.6054E-06
     Occupancy bounds            = [  0.000:  1.000]
     ~~~~~~~~~~~~~~~~~~~~~~~~~~~~~~~~~~~~~~~~~~~~~~~~~~~~~~~~~~~




################################################################################
########################### NGWF CG iteration  008 #############################
################################################################################

>>> Checking for convergence of NGWFs:   NOT CONVERGED                        
  ========================================================================
         NGWF RMS gradient =  2.0746E-05 >  2.0000E-06  | above tolerance
  ========================================================================

>>> Improving NGWFs using line search:
  ========================================================================
   Predicted total energy    =      -4.68422308291912E+01 Eh
   Predicted gain in energy  =      -2.75321871441747E-04 Eh
  ========================================================================

Writing NGWFs to file "reac.tightbox_ngwfs"....  done

>>> Optimising kernel for current NGWFs:
   iter  |      energy (Eh)       | rms gradient |  commutator  |   dE (Eh)
    1        -4.684222764221E+01     1.7394E-04     1.1860E-04
    2        -4.684222909396E+01     6.4281E-05     4.3828E-05    -1.4517E-06
    3        -4.684222945391E+01     3.5457E-05     2.4175E-05    -3.5995E-07
    4        -4.684222953636E+01     2.1639E-05     1.4754E-05    -8.2451E-08
    5        -4.684222947804E+01     1.5483E-05     1.0556E-05     5.8326E-08
Finished density kernel iterations (   5)

Writing density kernel to file "reac.dkn" ... done


>>> Density kernel optimised for the current NGWF basis:
     ~~~~~~~~~~~~~~~~~~~~~~~~~~~~~~~~~~~~~~~~~~~~~~~~~~~~~~~~~~~
     Total energy                =  -4.68422294780384E+01  Eh
     RMS occupancy error         =   7.3533E-16
     [H,K] commutator            =   1.0556E-05
     Occupancy bounds            = [  0.000:  1.000]
     ~~~~~~~~~~~~~~~~~~~~~~~~~~~~~~~~~~~~~~~~~~~~~~~~~~~~~~~~~~~




################################################################################
########################### NGWF CG iteration  009 #############################
################################################################################

>>> Checking for convergence of NGWFs:   NOT CONVERGED                        
  ========================================================================
         NGWF RMS gradient =  1.3146E-05 >  2.0000E-06  | above tolerance
  ========================================================================

>>> Improving NGWFs using line search:
  ========================================================================
   Predicted total energy    =      -4.68423070083601E+01 Eh
   Predicted gain in energy  =      -7.75303216684620E-05 Eh
  ========================================================================

Writing NGWFs to file "reac.tightbox_ngwfs"....  done

>>> Optimising kernel for current NGWFs:
   iter  |      energy (Eh)       | rms gradient |  commutator  |   dE (Eh)
    1        -4.684230689611E+01     8.1285E-05     5.5422E-05
    2        -4.684230730560E+01     4.3456E-05     2.9629E-05    -4.0949E-07
    3        -4.684230739029E+01     2.1466E-05     1.4636E-05    -8.4691E-08
    4        -4.684230742693E+01     6.6199E-06     4.5135E-06    -3.6643E-08
    5        -4.684230742987E+01     1.6199E-06     1.1045E-06    -2.9318E-09
Finished density kernel iterations (   5)

Writing density kernel to file "reac.dkn" ... done


>>> Density kernel optimised for the current NGWF basis:
     ~~~~~~~~~~~~~~~~~~~~~~~~~~~~~~~~~~~~~~~~~~~~~~~~~~~~~~~~~~~
     Total energy                =  -4.68423074298654E+01  Eh
     RMS occupancy error         =   2.1457E-16
     [H,K] commutator            =   1.1045E-06
     Occupancy bounds            = [  0.000:  1.000]
     ~~~~~~~~~~~~~~~~~~~~~~~~~~~~~~~~~~~~~~~~~~~~~~~~~~~~~~~~~~~




################################################################################
########################### NGWF CG iteration  010 #############################
################################################################################

>>> Checking for convergence of NGWFs:   NOT CONVERGED                        
  ========================================================================
         NGWF RMS gradient =  7.7889E-06 >  2.0000E-06  | above tolerance
  ========================================================================

>>> Improving NGWFs using line search:
  ========================================================================
   Predicted total energy    =      -4.68423434320297E+01 Eh
   Predicted gain in energy  =      -3.60021642791253E-05 Eh
  ========================================================================

Writing NGWFs to file "reac.tightbox_ngwfs"....  done

>>> Optimising kernel for current NGWFs:
   iter  |      energy (Eh)       | rms gradient |  commutator  |   dE (Eh)
    1        -4.684234235414E+01     1.0694E-04     7.2916E-05
    2        -4.684234290611E+01     4.3539E-05     2.9685E-05    -5.5196E-07
    3        -4.684234307750E+01     2.1851E-05     1.4898E-05    -1.7139E-07
    4        -4.684234301538E+01     1.7283E-05     1.1784E-05     6.2115E-08
    5        -4.684234304459E+01     7.5398E-06     5.1408E-06    -2.9203E-08
Finished density kernel iterations (   5)

Writing density kernel to file "reac.dkn" ... done


>>> Density kernel optimised for the current NGWF basis:
     ~~~~~~~~~~~~~~~~~~~~~~~~~~~~~~~~~~~~~~~~~~~~~~~~~~~~~~~~~~~
     Total energy                =  -4.68423430445856E+01  Eh
     RMS occupancy error         =   4.6963E-15
     [H,K] commutator            =   5.1408E-06
     Occupancy bounds            = [  0.000:  1.000]
     ~~~~~~~~~~~~~~~~~~~~~~~~~~~~~~~~~~~~~~~~~~~~~~~~~~~~~~~~~~~




################################################################################
########################### NGWF CG iteration  011 #############################
################################################################################

>>> Checking for convergence of NGWFs:   NOT CONVERGED                        
  ========================================================================
         NGWF RMS gradient =  4.2171E-06 >  2.0000E-06  | above tolerance
  ========================================================================

>>> Improving NGWFs using line search:
  ========================================================================
   Predicted total energy    =      -4.68423521269906E+01 Eh
   Predicted gain in energy  =      -9.08240495078871E-06 Eh
  ========================================================================

Writing NGWFs to file "reac.tightbox_ngwfs"....  done

>>> Optimising kernel for current NGWFs:
   iter  |      energy (Eh)       | rms gradient |  commutator  |   dE (Eh)
    1        -4.684235131493E+01     4.6731E-05     3.1862E-05
    2        -4.684235142945E+01     2.0585E-05     1.4035E-05    -1.1452E-07
    3        -4.684235146970E+01     9.9451E-06     6.7808E-06    -4.0251E-08
    4        -4.684235147917E+01     3.7556E-06     2.5606E-06    -9.4632E-09
    5        -4.684235148012E+01     8.3924E-07     5.7221E-07    -9.5106E-10
Finished density kernel iterations (   5)

Writing density kernel to file "reac.dkn" ... done


>>> Density kernel optimised for the current NGWF basis:
     ~~~~~~~~~~~~~~~~~~~~~~~~~~~~~~~~~~~~~~~~~~~~~~~~~~~~~~~~~~~
     Total energy                =  -4.68423514801162E+01  Eh
     RMS occupancy error         =   2.8151E-16
     [H,K] commutator            =   5.7221E-07
     Occupancy bounds            = [  0.000:  1.000]
     ~~~~~~~~~~~~~~~~~~~~~~~~~~~~~~~~~~~~~~~~~~~~~~~~~~~~~~~~~~~




################################################################################
########################### NGWF CG iteration  012 #############################
################################################################################

>>> Checking for convergence of NGWFs:                                        
           ........................................................
           |         *** NGWF optimisation converged ***          |
           | RMS NGWF gradient =    0.00000198644189              |
           | Criteria satisfied:                                  |
           | -> RMS NGWF gradient lower than set threshold.       |
           ========================================================

================================================================================
           ---------------- ENERGY COMPONENTS (Eh) ----------------
           | Kinetic                    :       27.71843439949951 |
           | Pseudopotential (local)    :     -155.17402697931743 |
           | Pseudopotential (non-local):        4.77669189060613 |
           | Hartree                    :       64.35579865398225 |
           | Exchange-correlation       :      -10.30847970824920 |
           | Ewald                      :       21.78923026336254 |
           | Total                      :      -46.84235148011621 |
           --------------------------------------------------------
           Integrated density           :       21.99999999999127
================================================================================


                    <<<<< CALCULATION SUMMARY >>>>>
|ITER|    RMS GRADIENT   |     TOTAL ENERGY    |   step   |     Epredicted      
   0     0.00062701006295    -46.53110858722983   1.559381    -46.75788377324713
   1     0.00027628107427    -46.77014772723268   1.647738    -46.81879570121303
   2     0.00014111246499    -46.82035745083492   1.752858    -46.83371210847784
   3     0.00008171703593    -46.83399672514465   1.906321    -46.83881127879440
   4     0.00005367275224    -46.83883678436142   1.325375    -46.84024912911985
   5     0.00003601942066    -46.84024929089575   2.274759    -46.84134098312442
   6     0.00002853127361    -46.84133851307299   2.065776    -46.84195872510614
   7     0.00002074557075    -46.84195550731980   1.739841    -46.84223082919124
   8     0.00001314641553    -46.84222947803840   1.212726    -46.84230700836007
   9     0.00000778888855    -46.84230742986542   1.605228    -46.84234343202970
  10     0.00000421705467    -46.84234304458564   1.419284    -46.84235212699059
  11     0.00000198644189    -46.84235148011621  <-- CG                         
 +++++++++++++++++++++++++++++++++++++++++++++++++++++++
 Product                       
 Path coordinate:                         1.00000
 Energy:                                -46.84235 Ha                            
 +++++++++++++++++++++++++++++++++++++++++++++++++++++++
 
            ++++++++++++++++++++++++++++++++++++++++++++++++++++++++++++++++++++
                             Coordinates: Fractional components
            ++++++++++++++++++++++++++++++++++++++++++++++++++++++++++++++++++++
            +  Element    Atom                                                 +
            +            Number           x          y          z              +
            ++++++++++++++++++++++++++++++++++++++++++++++++++++++++++++++++++++
            +    C         1          0.500042   0.499994   0.501559           +
            +    H         2          0.517948   0.545389   0.518821           +
            +    H         3          0.530376   0.461737   0.518774           +
            +    H         4          0.451795   0.492821   0.518876           +
            +    Cl        5          0.500024   0.499995   0.642835           +
            +    F         6          0.500011   0.500019   0.434313           +
            ++++++++++++++++++++++++++++++++++++++++++++++++++++++++++++++++++++
                           Forces: Cartesian components: Ha/Bohr                       
            ++++++++++++++++++++++++++++++++++++++++++++++++++++++++++++++++++++
            +  Element    Atom                                                 +
            +            Number           x          y          z              +
            ++++++++++++++++++++++++++++++++++++++++++++++++++++++++++++++++++++
            +    C         1          0.000002  -0.000027  -0.000331           +
            +    H         2          0.000152   0.000019   0.000129           +
            +    H         3          0.000094   0.000050   0.000108           +
            +    H         4         -0.000197  -0.000028   0.000052           +
            +    Cl        5          0.000006  -0.000002  -0.000135           +
            +    F         6         -0.000056  -0.000012   0.000176           +
            ++++++++++++++++++++++++++++++++++++++++++++++++++++++++++++++++++++
 
 +++++++++++++++++++++++++++++++++++++++++++++++++++++++
 LST maximum bracketing from reactant
 +++++++++++++++++++++++++++++++++++++++++++++++++++++++
 

Determining parallel strategy ...... done
Calculating Ewald energy ...           20.865371 Hartree
Basis initialisation ...... done
Sparse matrix initialisation ... done

Atom SCF Calculation for C  : Z (AE atom) =   6 : Z (PS atom) =   4
Config String:
Orbitals (num,occ):  2     2.00 2.00
Orbitals   (num,l):  2        0    1
Atom SCF converged after  16 iterations to a total energy of     -5.36425964

Atom SCF Calculation for Cl : Z (AE atom) =  17 : Z (PS atom) =   7
Config String:
Orbitals (num,occ):  2     2.00 5.00
Orbitals   (num,l):  2        0    1
Atom SCF converged after  24 iterations to a total energy of    -14.97096711

Atom SCF Calculation for H  : Z (AE atom) =   1 : Z (PS atom) =   1
Config String:
Orbitals (num,occ):  1     1.00
Orbitals   (num,l):  1        0
Atom SCF converged after  17 iterations to a total energy of     -0.44557673

Atom SCF Calculation for F  : Z (AE atom) =   9 : Z (PS atom) =   7
Config String:
Orbitals (num,occ):  2     2.00 5.00
Orbitals   (num,l):  2        0    1
Atom SCF converged after  31 iterations to a total energy of    -24.04868630
NGWF initialisation ...... done
Density renormalisation ...
Target Charge:    22.000000000000 ; Input Charge:    21.000169806920
Up spin density kernel initialisation ...... done                                 

Writing density kernel to file "reac.dkn" ... done

>>> Optimising kernel for current NGWFs:
   iter  |      energy (Eh)       | rms gradient |  commutator  |   dE (Eh)
    1        -4.647137260237E+01     2.3568E-02     1.6069E-02
    2        -4.651410497008E+01     1.7001E-02     1.1592E-02    -4.2732E-02
    3        -4.652943069858E+01     7.6986E-03     5.2490E-03    -1.5326E-02
    4        -4.653196628536E+01     3.4378E-03     2.3439E-03    -2.5356E-03
    5        -4.653263610588E+01     1.5900E-03     1.0841E-03    -6.6982E-04
Finished density kernel iterations (   5)

Writing density kernel to file "reac.dkn" ... done


>>> Density kernel optimised for the current NGWF basis:
     ~~~~~~~~~~~~~~~~~~~~~~~~~~~~~~~~~~~~~~~~~~~~~~~~~~~~~~~~~~~
     Total energy                =  -4.65326361058763E+01  Eh
     RMS occupancy error         =   3.2588E-12
     [H,K] commutator            =   1.0841E-03
     Occupancy bounds            = [  0.000:  1.000]
     ~~~~~~~~~~~~~~~~~~~~~~~~~~~~~~~~~~~~~~~~~~~~~~~~~~~~~~~~~~~




################################################################################
########################### NGWF CG iteration  001 #############################
################################################################################

>>> Checking for convergence of NGWFs:   NOT CONVERGED                        
  ========================================================================
         NGWF RMS gradient =  5.7712E-04 >  2.0000E-06  | above tolerance
  ========================================================================

>>> Improving NGWFs using line search:
  ========================================================================
   Predicted total energy    =      -4.67220514172888E+01 Eh
   Predicted gain in energy  =      -1.89415311412510E-01 Eh
  ========================================================================

Writing NGWFs to file "reac.tightbox_ngwfs"....  done

>>> Optimising kernel for current NGWFs:
   iter  |      energy (Eh)       | rms gradient |  commutator  |   dE (Eh)
    1        -4.672110525417E+01     1.4771E-02     1.0071E-02
    2        -4.673785473418E+01     5.0350E-03     3.4330E-03    -1.6749E-02
    3        -4.673937608574E+01     1.5584E-03     1.0626E-03    -1.5214E-03
[...]
   Predicted total energy    =      -4.68085058116098E+01 Eh
   Predicted gain in energy  =      -2.43676031210782E-04 Eh
  ========================================================================

Writing NGWFs to file "reac.tightbox_ngwfs"....  done

>>> Optimising kernel for current NGWFs:
   iter  |      energy (Eh)       | rms gradient |  commutator  |   dE (Eh)
    1        -4.680850362968E+01     1.5929E-04     1.0861E-04
    2        -4.680850596658E+01     5.6390E-05     3.8448E-05    -2.3369E-06
    3        -4.680850613478E+01     1.6731E-05     1.1408E-05    -1.6820E-07
    4        -4.680850616364E+01     7.8369E-06     5.3434E-06    -2.8866E-08
    5        -4.680850616948E+01     3.0481E-06     2.0783E-06    -5.8343E-09
Finished density kernel iterations (   5)

Writing density kernel to file "reac.dkn" ... done


>>> Density kernel optimised for the current NGWF basis:
     ~~~~~~~~~~~~~~~~~~~~~~~~~~~~~~~~~~~~~~~~~~~~~~~~~~~~~~~~~~~
     Total energy                =  -4.68085061694776E+01  Eh
     RMS occupancy error         =   6.0414E-16
     [H,K] commutator            =   2.0783E-06
     Occupancy bounds            = [  0.000:  1.000]
     ~~~~~~~~~~~~~~~~~~~~~~~~~~~~~~~~~~~~~~~~~~~~~~~~~~~~~~~~~~~




################################################################################
########################### NGWF CG iteration  009 #############################
################################################################################

>>> Checking for convergence of NGWFs:   NOT CONVERGED                        
  ========================================================================
         NGWF RMS gradient =  1.2671E-05 >  2.0000E-06  | above tolerance
  ========================================================================

>>> Improving NGWFs using line search:
  ========================================================================
   Predicted total energy    =      -4.68085816849163E+01 Eh
   Predicted gain in energy  =      -7.55154387235280E-05 Eh
  ========================================================================

Writing NGWFs to file "reac.tightbox_ngwfs"....  done

>>> Optimising kernel for current NGWFs:
   iter  |      energy (Eh)       | rms gradient |  commutator  |   dE (Eh)
    1        -4.680858099334E+01     1.0819E-04     7.3766E-05
    2        -4.680858198198E+01     4.0415E-05     2.7556E-05    -9.8864E-07
    3        -4.680858211790E+01     9.6087E-06     6.5514E-06    -1.3592E-07
    4        -4.680858212520E+01     4.0929E-06     2.7906E-06    -7.3039E-09
    5        -4.680858212715E+01     9.2028E-07     6.2746E-07    -1.9455E-09
Finished density kernel iterations (   5)

Writing density kernel to file "reac.dkn" ... done


>>> Density kernel optimised for the current NGWF basis:
     ~~~~~~~~~~~~~~~~~~~~~~~~~~~~~~~~~~~~~~~~~~~~~~~~~~~~~~~~~~~
     Total energy                =  -4.68085821271452E+01  Eh
     RMS occupancy error         =   2.6689E-16
     [H,K] commutator            =   6.2746E-07
     Occupancy bounds            = [  0.000:  1.000]
     ~~~~~~~~~~~~~~~~~~~~~~~~~~~~~~~~~~~~~~~~~~~~~~~~~~~~~~~~~~~




################################################################################
########################### NGWF CG iteration  010 #############################
################################################################################

>>> Checking for convergence of NGWFs:   NOT CONVERGED                        
  ========================================================================
         NGWF RMS gradient =  7.6062E-06 >  2.0000E-06  | above tolerance
  ========================================================================

>>> Improving NGWFs using line search:
  ========================================================================
   Predicted total energy    =      -4.68086207714680E+01 Eh
   Predicted gain in energy  =      -3.86443227498035E-05 Eh
  ========================================================================

Writing NGWFs to file "reac.tightbox_ngwfs"....  done

>>> Optimising kernel for current NGWFs:
   iter  |      energy (Eh)       | rms gradient |  commutator  |   dE (Eh)
    1        -4.680861860794E+01     1.3014E-04     8.8733E-05
    2        -4.680862003883E+01     5.0763E-05     3.4611E-05    -1.4309E-06
    3        -4.680862024929E+01     1.1854E-05     8.0822E-06    -2.1045E-07
    4        -4.680862026118E+01     5.4029E-06     3.6838E-06    -1.1895E-08
    5        -4.680862026447E+01     1.0856E-06     7.4016E-07    -3.2859E-09
Finished density kernel iterations (   5)

Writing density kernel to file "reac.dkn" ... done


>>> Density kernel optimised for the current NGWF basis:
     ~~~~~~~~~~~~~~~~~~~~~~~~~~~~~~~~~~~~~~~~~~~~~~~~~~~~~~~~~~~
     Total energy                =  -4.68086202644664E+01  Eh
     RMS occupancy error         =   3.7512E-16
     [H,K] commutator            =   7.4016E-07
     Occupancy bounds            = [ -0.000:  1.000]
     ~~~~~~~~~~~~~~~~~~~~~~~~~~~~~~~~~~~~~~~~~~~~~~~~~~~~~~~~~~~




################################################################################
########################### NGWF CG iteration  011 #############################
################################################################################

>>> Checking for convergence of NGWFs:   NOT CONVERGED                        
  ========================================================================
         NGWF RMS gradient =  5.0196E-06 >  2.0000E-06  | above tolerance
  ========================================================================

>>> Improving NGWFs using line search:
  ========================================================================
   Predicted total energy    =      -4.68086379552872E+01 Eh
   Predicted gain in energy  =      -1.76908207976112E-05 Eh
  ========================================================================

Writing NGWFs to file "reac.tightbox_ngwfs"....  done

>>> Optimising kernel for current NGWFs:
   iter  |      energy (Eh)       | rms gradient |  commutator  |   dE (Eh)
    1        -4.680863500161E+01     6.6736E-05     4.5502E-05
    2        -4.680863533743E+01     2.6912E-05     1.8349E-05    -3.3583E-07
    3        -4.680863540747E+01     8.2987E-06     5.6582E-06    -7.0041E-08
    4        -4.680863541358E+01     3.4763E-06     2.3702E-06    -6.1019E-09
    5        -4.680863541489E+01     8.4357E-07     5.7516E-07    -1.3117E-09
Finished density kernel iterations (   5)

Writing density kernel to file "reac.dkn" ... done


>>> Density kernel optimised for the current NGWF basis:
     ~~~~~~~~~~~~~~~~~~~~~~~~~~~~~~~~~~~~~~~~~~~~~~~~~~~~~~~~~~~
     Total energy                =  -4.68086354148874E+01  Eh
     RMS occupancy error         =   2.4683E-16
     [H,K] commutator            =   5.7516E-07
     Occupancy bounds            = [  0.000:  1.000]
     ~~~~~~~~~~~~~~~~~~~~~~~~~~~~~~~~~~~~~~~~~~~~~~~~~~~~~~~~~~~




################################################################################
########################### NGWF CG iteration  012 #############################
################################################################################

>>> Checking for convergence of NGWFs:   NOT CONVERGED                        
  ========================================================================
         NGWF RMS gradient =  2.8928E-06 >  2.0000E-06  | above tolerance
  ========================================================================

>>> Improving NGWFs using line search:
  ========================================================================
   Predicted total energy    =      -4.68086386807036E+01 Eh
   Predicted gain in energy  =      -3.26581614018551E-06 Eh
  ========================================================================

Writing NGWFs to file "reac.tightbox_ngwfs"....  done

>>> Optimising kernel for current NGWFs:
   iter  |      energy (Eh)       | rms gradient |  commutator  |   dE (Eh)
    1        -4.680863756740E+01     2.9792E-05     2.0313E-05
    2        -4.680863763184E+01     1.1221E-05     7.6506E-06    -6.4436E-08
    3        -4.680863764522E+01     4.0858E-06     2.7858E-06    -1.3379E-08
    4        -4.680863764666E+01     1.4969E-06     1.0206E-06    -1.4432E-09
    5        -4.680863764689E+01     4.5352E-07     3.0922E-07    -2.3224E-10
Finished density kernel iterations (   5)

Writing density kernel to file "reac.dkn" ... done


>>> Density kernel optimised for the current NGWF basis:
     ~~~~~~~~~~~~~~~~~~~~~~~~~~~~~~~~~~~~~~~~~~~~~~~~~~~~~~~~~~~
     Total energy                =  -4.68086376468917E+01  Eh
     RMS occupancy error         =   2.5815E-16
     [H,K] commutator            =   3.0922E-07
     Occupancy bounds            = [  0.000:  1.000]
     ~~~~~~~~~~~~~~~~~~~~~~~~~~~~~~~~~~~~~~~~~~~~~~~~~~~~~~~~~~~




################################################################################
########################### NGWF CG iteration  013 #############################
################################################################################

>>> Checking for convergence of NGWFs:                                        
           ........................................................
           |         *** NGWF optimisation converged ***          |
           | RMS NGWF gradient =    0.00000148743155              |
           | Criteria satisfied:                                  |
           | -> RMS NGWF gradient lower than set threshold.       |
           ========================================================

================================================================================
           ---------------- ENERGY COMPONENTS (Eh) ----------------
           | Kinetic                    :       27.48724370188629 |
           | Pseudopotential (local)    :     -153.87591086084200 |
           | Pseudopotential (non-local):        4.84553922571387 |
           | Hartree                    :       64.18623395854743 |
           | Exchange-correlation       :      -10.26597831661878 |
           | Ewald                      :       20.81423464442154 |
           | Total                      :      -46.80863764689164 |
           --------------------------------------------------------
           Integrated density           :       21.99999999998992
================================================================================


                    <<<<< CALCULATION SUMMARY >>>>>
|ITER|    RMS GRADIENT   |     TOTAL ENERGY    |   step   |     Epredicted      
   0     0.00057365145112    -46.53582221494054   1.541575    -46.72347500506071
   1     0.00025391221254    -46.74038072964458   1.703504    -46.78444634677064
   2     0.00013478644598    -46.78714020696634   1.775643    -46.79988340381708
   3     0.00008199539142    -46.80037961738468   1.899780    -46.80530213586607
   4     0.00005335410868    -46.80533555313243   1.349819    -46.80675691836478
   5     0.00003573240493    -46.80675857661937   2.099462    -46.80775125791014
   6     0.00002549201293    -46.80775421906203   2.105870    -46.80826168618854
   7     0.00001853337283    -46.80826213557854   1.917356    -46.80850581160976
   8     0.00001267138733    -46.80850616947757   1.271432    -46.80858168491630
   9     0.00000760619321    -46.80858212714521   1.797026    -46.80862077146796
  10     0.00000501960514    -46.80862026446638   1.931900    -46.80863795528717
  11     0.00000289276705    -46.80863541488742   1.228179    -46.80863868070356
  12     0.00000148743155    -46.80863764689166  <-- CG                         
 +++++++++++++++++++++++++++++++++++++++++++++++++++++++
 Path coordinate:                         0.27480
 Energy:                                -46.80864 Ha                            
 +++++++++++++++++++++++++++++++++++++++++++++++++++++++
 
 +++++++++++++++++++++++++++++++++++++++++++++++++++++++
 LST Maximum Found!
 Energy of reactant:                    -46.81094 Ha                            
 Energy of product:                     -46.84235 Ha                            
 Energy of LST maximum:                 -46.80864 Ha                            
 Location of LST maximum:                 0.27480
 Barrier from reactant:                   0.00231 Ha                            
 Barrier from product:                    0.03371 Ha                            
 Energy of reaction:                     -0.03141 Ha                            
 +++++++++++++++++++++++++++++++++++++++++++++++++++++++
 
            ++++++++++++++++++++++++++++++++++++++++++++++++++++++++++++++++++++
                             Coordinates: Fractional components
            ++++++++++++++++++++++++++++++++++++++++++++++++++++++++++++++++++++
            +  Element    Atom                                                 +
            +            Number           x          y          z              +
            ++++++++++++++++++++++++++++++++++++++++++++++++++++++++++++++++++++
            +    C         1          0.499983   0.499997   0.496269           +
            +    H         2          0.518434   0.546715   0.487338           +
            +    H         3          0.531130   0.460577   0.487365           +
            +    H         4          0.450276   0.492675   0.487429           +
            +    Cl        5          0.500026   0.500014   0.597633           +
            +    F         6          0.500017   0.500004   0.397482           +
            ++++++++++++++++++++++++++++++++++++++++++++++++++++++++++++++++++++
                           Forces: Cartesian components: Ha/Bohr                       
            ++++++++++++++++++++++++++++++++++++++++++++++++++++++++++++++++++++
            +  Element    Atom                                                 +
            +            Number           x          y          z              +
            ++++++++++++++++++++++++++++++++++++++++++++++++++++++++++++++++++++
            +    C         1         -0.000088  -0.000029  -0.003058           +
            +    H         2          0.001076   0.002283   0.003312           +
            +    H         3          0.001644  -0.001842   0.003307           +
            +    H         4         -0.002604  -0.000395   0.003251           +
            +    Cl        5          0.000006  -0.000001  -0.013571           +
            +    F         6         -0.000034  -0.000016   0.006760           +
            ++++++++++++++++++++++++++++++++++++++++++++++++++++++++++++++++++++
 

------------------------------ TIMING INFORMATION ------------------------------
AVERAGE TIME:    8542.608s on      1 node(s)                                    
TOTAL TIME:      8542.608s on      1 node(s)                                    
================== AVERAGE TIMINGS FROM ALL NODES (CUMULATIVE) =================
|| TAG                                    #calls    cpu time   %total  Gflops ||
|| work_imbalance                       :     1        0.00s   0.000%  ------ ||
|| restart_kernel_write                 :   141        0.04s   0.001%  ------ ||
|| ewald_calculate_forces_recipspace    :    10        0.11s   0.001%  ------ ||
|| ewald_calculate_energy               :    10        0.20s   0.002%  ------ ||
|| ewald_calculate_forces_realspace     :    10        0.22s   0.003%  ------ ||
|| ewald_calculate_forces               :    10        0.33s   0.004%  ------ ||
|| basis_extract_function_from_box      :  3930        0.51s   0.006%  ------ ||
|| sparse_init                          :    10        0.70s   0.008%  ------ ||
|| pseudo_make_structure_factor         :    10        2.18s   0.026%  ------ ||
|| palser_mano_kernel_optimise          :    10        3.16s   0.037%  ------ ||
|| sparse_hotelling_invert              :   262        3.55s   0.042%  ------ ||
|| ngwf_gradient_coeffs                 :   131        5.19s   0.061%  ------ ||
|| pseudopotentials_nonlocal_mat        :   262        5.91s   0.069%  ------ ||
|| pseudopotentials_local_on_grid       :    10        7.09s   0.083%  ------ ||
|| integrals_grad                       :    10        7.52s   0.088%  ------ ||
|| nonsc_forces_ngwfs_calc              :    10        7.52s   0.088%  ------ ||
|| pseudo_local_calculate_forces        :    10        9.80s   0.115%  ------ ||
|| ngwfs_initialise_from_radial         :    10       11.49s   0.135%  ------ ||
|| density_initial_guess_real           :    10       12.29s   0.144%  ------ ||
|| function_ops_brappd_ketppd           :   262       12.59s   0.147%  ------ ||
|| projectors_func_grad_ovlp_box        :    30       15.94s   0.187%  ------ ||
|| pseudo_nl_calculate_forces           :    10       16.91s   0.198%  ------ ||
|| basis_dot_function_with_box          : 217.1k      20.75s   0.243%  ------ ||
|| restart_ngwfs_tightbox_output        :   121       20.75s   0.243%  ------ ||
|| basis_copy_function_to_box           : 35895       26.07s   0.305%  ------ ||
|| lnv_gradient_norm                    :   655       26.72s   0.313%  ------ ||
|| kernel_purify                        :  2101       27.16s   0.318%  ------ ||
|| integrals_locpot_mat_els_batch       :   665       28.04s   0.328%  ------ ||
|| kernel_fix                           :   655       36.38s   0.426%  ------ ||
|| hamiltonian_energy_components        :    10       37.99s   0.445%  ------ ||
|| forces_calculate                     :    10       51.00s   0.597%  ------ ||
|| basis_add_function_to_box            : 418.3k      51.42s   0.602%  ------ ||
|| cell_grid_extract_box                : 12867       54.03s   0.632%  ------ ||
|| density_batch_row_sums               :  1335       54.11s   0.633%  ------ ||
|| sparse_trace                         : 20222       57.03s   0.668%  ------ ||
|| fourier_apply_box_pair               :  6106       65.81s   0.770%   6.825 ||
|| sparse_product                       : 28268       73.26s   0.858%  ------ ||
|| integrals_kinetic                    :   262       96.29s   1.127%  ------ ||
|| projectors_init_fftbox_recip         :   423      115.99s   1.358%  ------ ||
|| projectors_func_ovlp_box             :   262      124.50s   1.457%  ------ ||
|| cell_grid_deposit_box                : 20085      160.24s   1.876%  ------ ||
|| projectors_gradient_batch            :   131      279.89s   3.276%  ------ ||
|| density_fftbox_deposit_to_cell       : 20025      283.52s   3.319%  ------ ||
|| xc_energy_potential                  :  1335      387.48s   4.536%  ------ ||
|| fourier_apply_cell_backward          :  1345      478.92s   5.606%   0.960 ||
|| fourier_apply_cell_forward           :  1345      524.30s   6.137%   0.877 ||
|| hartree_on_grid                      :  1335     1033.83s  12.102%  ------ ||
|| ngwf_gradient_batch                  :   131     1173.29s  13.735%  ------ ||
|| ngwf_gradient_lnv                    :   131     1236.84s  14.479%  ------ ||
|| potential_apply_to_ngwf_batch        :   665     1852.75s  21.688%  ------ ||
|| integrals_locpot_dbl_grid            :   665     1893.12s  22.161%  ------ ||
|| density_fftbox_interpolate_multiply  : 20025     2025.99s  23.716%  ------ ||
|| fourier_apply_box                    : 79888     2540.62s  29.741%  10.556 ||
|| density_batch_interp_deposit         :  1335     2965.95s  34.719%  ------ ||
|| density_on_dbl_grid                  :  1335     3124.17s  36.572%  ------ ||
|| lnv_denskernel_optimise_cg           :   131     6332.66s  74.130%  ------ ||
|| ngwf_cg_optimise                     :    10     8357.64s  97.835%  ------ ||
|| total_time                           :     1     8542.61s 100.000%  ------ ||
================================================================================
Overhead of generating timer report: 
- 0 ms averaging over threads,
- 0 ms ensuring consistency across MPI ranks,
- 6 ms printing in order.

Job completed: 30-06-2015 19:28 (+0100)

