
   OpenMP run-time library returned nthreads = 16
 operating system is UNIX !

 force (node096) : TURBOMOLE V7.2 ( 21285 ) 30 Jun 2017 at 09:40:16
 Copyright (C) 2017 TURBOMOLE GmbH, Karlsruhe


    2018-07-30 17:52:07.689 



                             T U R B O M O L E   

                          a o f o r c e - program

                        using direct algorithms for

                       SCF level calculations of
                         * harmonic force constants
                         * hyperpolarizabilities
                         * IR and RAMAN intensities
                         * VCD intensities

                       DFT level calculations of
                         * harmonic force constants
                         * IR intensities
                                                   
       Stephan Boecker, Peter Deglmann, Filipp Furche and Marco Haeser
                          Quantum Chemistry Group
                          Universitaet  Karlsruhe
                                   Germany

 
 

          OpenMP Shared-Memory Parallelization: 16 CPUs.

            By: Erik P. Almaraz and Filipp Furche
            Copyright 2009-2011 by UCI and TURBOMOLE GmbH.

 
 
     References :
 
       RI-J implementation:
         Peter Deglmann, Klaus May, Filipp Furche, Reinhart Ahlrichs
                 Chem. Phys. Lett. 384:103 (2004)
 
       Efficiency, technical details:
         Peter Deglmann, Filipp Furche, Reinhart Ahlrichs
                 Chem. Phys. Lett. 362:511 (2002)
 
       Search of lowest eigenvalues by iterative diagonalization:
         Peter Deglmann, Filipp Furche
                 J. Chem. Phys. 117:9535 (2002)
 
       Vibrational circular dichroism implementation:
        Kevin Reiter, Michael Kuehn, Florian Weigend
                 J. Chem. Phys. 146:054102 (2017)  
 
 


              +--------------------------------------------------+
              | Atomic coordinate, charge and isotop information |
              +--------------------------------------------------+

                    atomic coordinates            atom    charge  isotop
         -4.23924353   -2.10675216    1.21445339    c      6.000     0
         -4.28600430    0.44184677    0.62259477    c      6.000     0
         -2.00443549    1.96091004    0.35726174    c      6.000     0
          0.39078113    0.84795954    0.72126827    c      6.000     0
          0.37213828   -1.76613593    1.32127145    c      6.000     0
         -1.81656686   -3.23851136    1.57139108    c      6.000     0
          2.60444127   -3.10218660    1.74208058    c      6.000     0
          4.94016785   -1.76544831    1.51945019    c      6.000     0
          5.05484427    0.67394317    0.97118762    n      7.000     0
          2.81267286    1.97127461    0.58688042    c      6.000     0
         -5.96580604   -3.20421482    1.39654310    h      1.000     0
         -6.41593746    1.82197947    0.22185128    o      8.000     0
         -2.23417549    3.94915344   -0.12227018    h      1.000     0
          6.74087234   -2.74560872    1.78712133    h      1.000     0
          3.01615408    3.97871606    0.15874445    h      1.000     0
         -1.03332908   -5.89264680    2.25966449    c      6.000     0
          1.93882599   -5.85376265    2.26190241    c      6.000     0
         -1.74741820   -6.43640988    4.14002303    h      1.000     0
         -1.76642048   -7.30052508    0.91910316    h      1.000     0
          3.22871136   -7.47348312    0.25692611    c      6.000     0
          2.72042695   -6.49698398    4.07506091    h      1.000     0
          1.79851499   -7.70638179   -1.85904859    o      8.000     0
          5.34186580   -8.34625886    0.47455065    o      8.000     0
          3.01097443   -9.02141373   -3.92153181    c      6.000     0
          4.73438501   -8.02275881   -4.49374242    h      1.000     0
          1.62618325   -9.03334041   -5.45485409    h      1.000     0
          3.50470051  -10.95376715   -3.35853576    h      1.000     0
         -8.78290030    0.54414774    0.44145653    c      6.000     0
         -8.92802165   -0.98904475   -0.95701363    h      1.000     0
        -10.23390262    1.97023881    0.07672644    h      1.000     0
         -9.02430478   -0.23996902    2.35303783    h      1.000     0
 
       center of nuclear mass  :    0.12454733   -2.78694157    0.52251150
       center of nuclear charge:    0.05030883   -2.82326104    0.49802736

              +--------------------------------------------------+
              |               basis set information              |
              +--------------------------------------------------+

              we will work with the 1s 3p 5d 7f 9g ... basis set
              ...i.e. with spherical basis functions...

   type   atoms  prim   cont   basis
   ---------------------------------------------------------------------------
    c       14     46     31   def2-TZVPP   [5s3p2d1f|11s6p2d1f]
    n        1     46     31   def2-TZVPP   [5s3p2d1f|11s6p2d1f]
    h       13     16     14   def2-TZVPP   [3s2p1d|5s2p1d]
    o        3     46     31   def2-TZVPP   [5s3p2d1f|11s6p2d1f]
   ---------------------------------------------------------------------------
   total:   31   1036    740
   ---------------------------------------------------------------------------

   total number of primitive shells          :   68
   total number of contracted shells         :  276
   total number of cartesian basis functions :  843
   total number of SCF-basis functions       :  740


 symmetry group of the molecule :   c1 

 the group has the following generators :
   c1(z)

    1 symmetry operations found

 there are 1 real representations :   a   

 maximum number of shells which are related by symmetry :  1


 determining totally symmetric integral contributions 
    - equivalent to irreducible tensor elements - 
 which can be formed within each triple of representations :

             representation triple      contributions

              a     a     a               1
       UHF mode switched on !

    mo occupation :
   irrep   mo's   occupied
    a      740       65
 
 number of basis functions   :                    740
 number of occupied orbitals :                     65
 
 ALPHA-Occupation:                    65
 BETA-Occupation :                    63
  MOs are in ASCII format !


 reading orbital data $uhfmo_alpha  from file alpha
 orbital characterization : scfconv=8

 reading orbital data $uhfmo_beta  from file beta
 orbital characterization : scfconv=8
 time elapsed for calculating density matrices :   1.807 sec

 number of non-frozen orbitals          :   740
 number of non-frozen occupied orbitals :    65

 number of non-frozen orbitals          :   740
 number of non-frozen occupied orbitals :    63
 Blocking parameters 
 shells:
    index      start shell   last shell  start bf    last bf    #bf 
       1             1         276             1        843    843
  
           ------------------
           density functional
           ------------------
 B-P86 functional
 exchange:    LDA + Becke (B88)
 correlation: LDA (VWN) + Perdew (P86)

 iterations will be done with small grid
  
 spherical integration : Lebedev's spherical grid
 spherical gridsize    :                     4
    i.e. gridpoints    :                   434
 value for diffuse not defined
 radial integration    : Chebyshev 2nd kind (scaling 3)
 radial gridsize       :                     6
 integration cells     :                    31
 partition function    : becke
 partition sharpness   :                     3
  
 
 Derivatives of quadrature weights will be included
 
          Overall gridpoints after grid construction =        304700
 Ordering of quadrature gridpoints disabled.
 
 
 
 
 OCCUPIED-OCCUPIED TENSOR SPACES :

          IRREP   tensor space dimension   number of roots

           a              8194                  87
 
 OCCUPIED-VIRTUAL TENSOR SPACES :

          IRREP   tensor space dimension   number of roots

           a             86526                  87
 
 
 
 
 CONSTRUCTING integral bounds

 setting up bound for integral derivative estimation

 increment for numerical differentiation : 0.00050000
 
 machine precision:   2.220446049250313E-016

 integral neglect threshold       :  0.10E-09
 integral storage threshold THIZE :  0.10E-04
 integral storage threshold THIME :         5

 
 
 
 PREPARING NUMERICAL INTEGRATION
 
 Remaining core memory for DFT =                 20674 MB
 
 Memory needed per atom    =                 16675 KiB
 
     i. e.                    31 atoms per loop

 Calculating ground state density on molecular grid

 Integral of ground state total density: Na =   127.9999701296183    

 Integral of ground state spin density:  Nb =   1.999999648590304    


 
 
 CONSTRUCTING first deriv. of <mu|x,y,z|nu> -> Dip. deriv.
  dipole integral derivatives will be neglected if
  expon. factor <0.593120E-13
      ...terminated. cpu:       3.08       wall:       0.31
 
 
 
 
 CONSTRUCTING first deriv. of  <mu|nu>
                               <mu|h|nu>    -> RHS
              second deriv. of <mu|nu>      -> Hessian
                               <mu|h|nu>    -> Hessian
                               nucl. rep.   -> Hessian
     integrals are neglected if expon. factor <  5.931198102016607E-015
  _________________________________
 |                                 |
 |         DFTD3 V3.1 Rev 0        |
 | S.Grimme, University Bonn       |
 |         June 2014               |
 |   see standalone version        |
 |       dftd3 -h for options      |
 |_________________________________|
 
 Please cite DFT-D3 work done with this code as:
 S. Grimme, J. Antony, S. Ehrlich and H. Krieg,
 J. Chem. Phys, 132 (2010), 154104.
 If used with BJ-damping cite also
 S. Grimme, S. Ehrlich and L. Goerigk,
 J. Comput. Chem. 32 (2011), 1456-1465
 For DFT-D2 the reference is
 S. Grimme, J. Comput. Chem., 27 (2006), 1787-1799
 
      ...terminated. cpu:      52.70       wall:      18.91
 
 
 
 
 CONSTRUCTING second deriv. of 2e energy    -> Hessian
   treating Coulomb (and exchange) contribution
     integrals will be neglected if total contribution <  5.931198102016607E-011
      ...terminated. cpu:   14873.41       wall:     930.50
   treating exchange-correlation contribution
      ...terminated. cpu:    8247.83       wall:     519.81
 
 
 
 
 CONSTRUCTING S(i,j)xi
      ...terminated. cpu:       1.11       wall:       0.74
 
 
 
 
 CONSTRUCTING <i|x,y,z|j>*S(i,j)xi          -> Dip. deriv.
      ...terminated. cpu:       6.37       wall:       0.50
 
 
 
 
 CONSTRUCTING epsilon(i)*S(i,j)xi*S(i,j)chi -> Hessian
      ...terminated. cpu:       1.04       wall:       0.07
 
 
 
 
 CONSTRUCTING G(a,i)[S(k,l)xi]              -> RHS
              G(i,j)[S(k,l)xi]*S(i,j)chi    -> Hessian
 
         Maximum core memory set to                  22192 MB
         This corresponds to                  2033 vectors in CAO basis
      ...terminated. cpu:   70299.63       wall:    4403.07
 
 
 
 
 CONSTRUCTING G(mu,nu)[D(kap,lam)]xi
 
          Maximum core memory set to                  22192 MB
          Atoms treated simultaneously :                    31
      ...terminated. cpu:   24540.63       wall:    1542.54
 
 
 
 
 CONSTRUCTING F(a,i)xi                      -> RHS
              F(i,j)xi*S(i,j)chi            -> Hessian
 
        Maximum core memory set to                 22192 MB
        This corresponds to                  3644 vectors in CAO basis
      ...terminated. cpu:     256.04       wall:      36.98
 
 
 
 
 CONSTRUCTING epsilon(i)*S(a,i)xi           -> RHS
      ...terminated. cpu:       5.43       wall:       5.59
 
 
 
 
 SOLVING CPHF equations
 
 Residuum convergence criterium   :  1.000000000000000E-005
 
 Maximum number of Davidson iterations set to                    25
  Switching to small grid
        preparing numerical integration ....
          Overall gridpoints after grid construction =         85892

 Calculating ground state density on molecular grid

 Integral of ground state total density: Na =   128.0001122542219    

 Integral of ground state spin density:  Nb =   2.000009412290938    




                       Nonorthonormal Krylov Space Iteration


 total number of roots to be determined:  87


 maximum core memory set to 22192 MB,
 corresponding to     2033 vectors in CAO basis


 maximum number of simultaneously treated vectors (including degeneracy):       87


 Iteration IRREP Converged      Max. Euclidean
                 roots          residual norm

    1       a        0        1.321055863089205D-01
 
    2       a        0        1.925913882148069D-02
 
    3       a        0        3.137749288820389D-03
 
    4       a        0        3.688304198640393D-04
 
    5       a       65        3.659236049508131D-05
 
    6       a       87        8.885025246657509D-06
 

 converged!

  Switching to fine grid
        preparing numerical integration ....
          Overall gridpoints after grid construction =        304700

 Calculating ground state density on molecular grid

 Integral of ground state total density: Na =   127.9999701296174    

 Integral of ground state spin density:  Nb =   1.999999648590299    



 Iteration IRREP Converged      Max. Euclidean
                 roots          residual norm

    7       a       24        4.029638483085764D-05
 

 NOTE: Residual norms are larger than 1.00D-05 due to mgrid option!

      ...terminated. cpu:  272903.34       wall:   17111.65
 
 
 
 
 CONSTRUCTING <a|x,y,z|i>*U(a,i)xi          -> Dip. deriv.
      ...terminated. cpu:       9.22       wall:       0.73
 
 
 
 
 CONSTRUCTING RHS(a,i)xi*U(a,i)chi          -> Hessian
      ...terminated. cpu:       6.91       wall:       0.74
 
 
 
 

            -----------------------
            permanent dipole moment
            -----------------------

                                   x                y                z
    electronic part       :   -8.6898380981   360.8682756423   -64.0326494733
     nuclear   part       :    6.4395308535  -361.3774131960    63.7475018903
     total                :   -2.2503072446    -0.5091375537    -0.2851475830

 with reference to the point :   0.0000000        0.0000000        0.0000000
 (given in atomic units)
    | dipole |       :    5.9089426085  debye

   ***  dipole moment & cartesian dipole gradients written onto
        $dipole, $dipgrad,  file=<dipgrad>  ***

             -----------------------------------
             rotational and vibrational analysis
             -----------------------------------


            ==============================================================
            ATOMIC WEIGHTS (average over the natural occurance of isotops)
            ==============================================================
            ('*' denotes special isotop !)
              1     c                12.01115
              2     c                12.01115
              3     c                12.01115
              4     c                12.01115
              5     c                12.01115
              6     c                12.01115
              7     c                12.01115
              8     c                12.01115
              9     n                14.00670
             10     c                12.01115
             11     h                 1.00797
             12     o                15.99940
             13     h                 1.00797
             14     h                 1.00797
             15     h                 1.00797
             16     c                12.01115
             17     c                12.01115
             18     h                 1.00797
             19     h                 1.00797
             20     c                12.01115
             21     h                 1.00797
             22     o                15.99940
             23     o                15.99940
             24     c                12.01115
             25     h                 1.00797
             26     h                 1.00797
             27     h                 1.00797
             28     c                12.01115
             29     h                 1.00797
             30     h                 1.00797
             31     h                 1.00797

          -------------------------------------------------
          CARTESIAN FORCE CONSTANT MATRIX (hartree/bohr**2)
         (translational & rotational space projected out)
          -------------------------------------------------

   ATOM              1 c                           2 c 
                  dx        dy        dz        dx        dy        dz
   1 c     dx  0.6270529
           dy  0.0669293 0.6165273
           dz  0.0064558-0.1196004 0.1167576
   2 c     dx -0.0960285-0.0017283-0.0012363 0.5548908
           dy -0.0262727-0.3188226 0.0595632-0.0224684 0.6376426
           dz  0.0043708 0.0609191-0.0705719 0.0213032-0.1190427 0.1589280
   3 c     dx -0.0182155-0.0134474 0.0022098-0.1586023-0.0494338 0.0075456
           dy -0.0273874-0.0290273 0.0077588-0.0654848-0.1302111 0.0165464
           dz  0.0051987 0.0083223 0.0071879 0.0108590 0.0169855-0.0526732
   4 c     dx  0.0334098-0.0130500 0.0042804-0.0280096 0.0130447-0.0047707
           dy  0.0106748-0.0118941 0.0030524 0.0011691 0.0279978-0.0053863
           dz -0.0006012 0.0013762-0.0011397-0.0007029-0.0037951 0.0055568
   5 c     dx -0.0469155-0.0169043 0.0016868 0.0248760 0.0238093-0.0045605
           dy -0.0037022 0.0206347-0.0033526-0.0045929-0.0091560 0.0016223
           dz -0.0009720-0.0042973 0.0084416 0.0028315 0.0038084-0.0021129
   6 c     dx -0.2263532 0.0439073-0.0175204-0.0239022 0.0276090-0.0074593
           dy  0.0629044-0.1124201 0.0199073 0.0295813-0.0369661 0.0102804
           dz -0.0219820 0.0193471-0.0442392-0.0084140 0.0096554-0.0001177
   7 c     dx  0.0128694-0.0038979 0.0015357-0.0074069-0.0083775 0.0016687
           dy  0.0039441-0.0104514 0.0031468 0.0143014 0.0148218-0.0037373
           dz -0.0008890 0.0030497 0.0006547-0.0040104-0.0051076-0.0021489
   8 c     dx -0.0135161 0.0017686-0.0010269-0.0058504-0.0051425 0.0010601
           dy -0.0150158 0.0106708-0.0030531-0.0134123-0.0153152 0.0028216
           dz  0.0027428-0.0022149 0.0008844 0.0025091 0.0025439-0.0024298
   9 n     dx -0.0043809 0.0117050-0.0026387-0.0171188-0.0209439 0.0046703
           dy  0.0133593-0.0083601 0.0023136 0.0154525 0.0187401-0.0034013
           dz -0.0029315 0.0022531-0.0007318-0.0039254-0.0044422 0.0023160
  10 c     dx -0.0143513 0.0030445-0.0013510 0.0108631 0.0131964-0.0029409
           dy -0.0127962 0.0115559-0.0033434-0.0072894-0.0166531 0.0043102
           dz  0.0021541-0.0026931-0.0004021 0.0018633 0.0049580 0.0022217
  11 h     dx -0.2436999-0.1252890 0.0198095 0.0034848 0.0001115-0.0000290
           dy -0.1222608-0.1316237 0.0201421-0.0265868-0.0102997 0.0021694
           dz  0.0189410 0.0199559-0.0264903 0.0062545 0.0034738 0.0032348
  12 o     dx -0.0121584 0.0247323-0.0068234-0.2100533 0.0996619-0.0295992
           dy  0.0428471-0.0279310 0.0110344 0.0639162-0.1553054 0.0293092
           dz -0.0107251 0.0101655 0.0092836-0.0210925 0.0306230-0.0481402
  13 h     dx -0.0049689-0.0012584 0.0000520 0.0052307-0.0238563 0.0057434
           dy -0.0027326 0.0001305 0.0001125 0.0045978-0.0135683 0.0040076
           dz  0.0004818 0.0001309 0.0009901-0.0010401 0.0028480 0.0019078
  14 h     dx -0.0005066 0.0000276-0.0000152-0.0001367-0.0005753 0.0001136
           dy -0.0003488-0.0002442 0.0001113 0.0000544 0.0000668 0.0002591
           dz  0.0001431-0.0001076 0.0002554 0.0002711 0.0005802 0.0010107
  15 h     dx  0.0002414-0.0002021 0.0000335 0.0001565 0.0005742-0.0000504
           dy  0.0003320 0.0001537 0.0000298-0.0001649-0.0002226-0.0002245
           dz -0.0002271 0.0002356 0.0001683-0.0002148-0.0005838-0.0012215
  16 c     dx  0.0009868 0.0224692-0.0055085-0.0048001-0.0009720-0.0000700
           dy  0.0078940-0.0075178 0.0019656-0.0013942 0.0023022-0.0001584
           dz -0.0020476 0.0025264-0.0010362 0.0003725-0.0000580 0.0021732
  17 c     dx -0.0005614 0.0008159-0.0001843 0.0011592 0.0002656-0.0002307
           dy -0.0018931-0.0031691 0.0010573-0.0027007-0.0027221 0.0009311
           dz  0.0001585 0.0015740 0.0022514-0.0010725 0.0001627 0.0015718
  18 h     dx -0.0006376 0.0006677 0.0003652 0.0004273 0.0000645 0.0002223
           dy -0.0013864 0.0013718-0.0010361 0.0000449-0.0007296-0.0002682
           dz  0.0012789-0.0005396 0.0005808-0.0001954 0.0004488-0.0001567
  19 h     dx -0.0005412 0.0004082-0.0005630 0.0004037-0.0001874-0.0000768
           dy -0.0016151 0.0018565 0.0003031 0.0000851-0.0005572 0.0004778
           dz -0.0002848-0.0002558 0.0001041 0.0002519-0.0000184-0.0001863
  20 c     dx  0.0010213-0.0011693-0.0000076-0.0010921 0.0014546-0.0000103
           dy -0.0001154 0.0020601-0.0011916 0.0009296-0.0015602 0.0005280
           dz -0.0012008 0.0021607-0.0016574 0.0024254-0.0003433-0.0001160
  21 h     dx  0.0000181 0.0010933-0.0000498-0.0005351-0.0003732-0.0001267
           dy  0.0007267-0.0003206 0.0001912 0.0001211 0.0004372-0.0003560
           dz -0.0004361-0.0000659-0.0003031-0.0001166-0.0003945 0.0000677
  22 o     dx  0.0005697-0.0002920 0.0004098 0.0002925 0.0004705-0.0000158
           dy  0.0002246-0.0005725 0.0001831-0.0006580 0.0004370-0.0000828
           dz  0.0012708-0.0016847 0.0009453-0.0012076 0.0012292-0.0001533
  23 o     dx -0.0010852 0.0022291-0.0008576-0.0000301-0.0023012 0.0002950
           dy  0.0000924-0.0012341 0.0007222-0.0003787 0.0009519-0.0001395
           dz  0.0001603-0.0006728 0.0003553-0.0005317-0.0000357-0.0000263
  24 c     dx  0.0000627-0.0002437 0.0000332-0.0002500 0.0001499-0.0000352
           dy -0.0002410 0.0004284-0.0001559 0.0003475-0.0004474 0.0000731
           dz -0.0001590 0.0006094-0.0002330 0.0004905-0.0005811 0.0001283
  25 h     dx -0.0000242 0.0001222-0.0000512 0.0000334-0.0001097 0.0000223
           dy  0.0000238-0.0000477 0.0000301-0.0000271 0.0000245 0.0000004
           dz  0.0000416-0.0001027 0.0000354-0.0000048 0.0001102-0.0000118
  26 h     dx  0.0000031-0.0000397 0.0000131-0.0000111 0.0000528-0.0000172
           dy  0.0000307-0.0000239 0.0000289-0.0000298-0.0000077-0.0000042
           dz  0.0000661-0.0000903 0.0000561-0.0001053 0.0000362-0.0000051
  27 h     dx -0.0000218 0.0000706-0.0000271 0.0000799-0.0000546 0.0000116
           dy  0.0000302-0.0000705 0.0000118-0.0000748 0.0000783-0.0000177
           dz  0.0000043-0.0000511 0.0000229-0.0000195 0.0000367-0.0000136
  28 c     dx  0.0068537-0.0053885 0.0016567-0.0570122-0.0053420-0.0006876
           dy  0.0072427-0.0024723 0.0003999 0.0129599 0.0120631-0.0027197
           dz -0.0013912-0.0001110-0.0020334-0.0049349-0.0034083-0.0009551
  29 h     dx  0.0004771 0.0018042-0.0001627 0.0053238-0.0049444 0.0001789
           dy -0.0008568 0.0007370-0.0001970 0.0036183-0.0008512 0.0009321
           dz -0.0004573-0.0007784-0.0001596 0.0007872-0.0007846 0.0008139
  30 h     dx -0.0000487-0.0005737 0.0001037-0.0017505-0.0045748 0.0010591
           dy -0.0001034-0.0008461 0.0002729-0.0032197-0.0015816 0.0004152
           dz -0.0000117 0.0002744 0.0003592 0.0006100 0.0003859 0.0005463
  31 h     dx  0.0004489 0.0016895-0.0006217 0.0053684-0.0045349 0.0024156
           dy -0.0005283 0.0009226-0.0004082 0.0030318-0.0005865-0.0000647
           dz  0.0008476 0.0003652-0.0003363-0.0020046 0.0011462 0.0005631

   ATOM              3 c                           4 c 
                  dx        dy        dz        dx        dy        dz
   3 c     dx  0.5489435
           dy -0.0457489 0.6020520
           dz  0.0300110-0.1227152 0.1196777
   4 c     dx -0.2102878 0.0492880-0.0184407 0.5674674
           dy  0.0742234-0.1438797 0.0263366 0.0017499 0.5959419
           dz -0.0245186 0.0244258-0.0525562 0.0194109-0.1072370 0.1520245
   5 c     dx -0.0254688 0.0206714-0.0059737-0.0926270-0.0010647-0.0014809
           dy  0.0348021-0.0252051 0.0084690-0.0048506-0.2673108 0.0446879
           dz -0.0098180 0.0075291 0.0032636-0.0000607 0.0446609-0.0828229
   6 c     dx  0.0254192 0.0068553-0.0002503-0.0298150-0.0304842 0.0057286
           dy -0.0044812 0.0088610-0.0038265-0.0168487-0.0241615 0.0066540
           dz  0.0024793-0.0028595-0.0057747 0.0027048 0.0051760 0.0034246
   7 c     dx  0.0355024-0.0097378 0.0037121-0.0374137 0.0311889-0.0088591
           dy -0.0036618-0.0189438 0.0055896 0.0096403-0.0193268 0.0069538
           dz  0.0017024 0.0055599 0.0037413-0.0028167 0.0082348 0.0085067
   8 c     dx -0.0184442 0.0139520-0.0041877 0.0397611-0.0050797 0.0033064
           dy -0.0118811 0.0173006-0.0051263 0.0231326-0.0148860 0.0049275
           dz  0.0021794-0.0034895-0.0002767-0.0035293 0.0036065 0.0000147
   9 n     dx  0.0083050 0.0081761-0.0018497-0.0447433-0.0019902-0.0026026
           dy -0.0025728-0.0193095 0.0055470-0.0122332 0.0290157-0.0063482
           dz  0.0007816 0.0051560 0.0027779-0.0003256-0.0044630 0.0099154
  10 c     dx -0.0715162-0.0027155-0.0029387-0.1932331-0.0698185 0.0090376
           dy -0.0011655 0.0329724-0.0065789-0.0495882-0.1535974 0.0208365
           dz -0.0031827-0.0061928 0.0067208 0.0039080 0.0187006-0.0578111
  11 h     dx  0.0010188 0.0010398-0.0004005-0.0001046 0.0002984-0.0000171
           dy  0.0029521-0.0040874 0.0022365-0.0003675-0.0002599-0.0002523
           dz -0.0010093 0.0020971 0.0045090 0.0002715-0.0001882-0.0011480
  12 o     dx -0.0575872 0.0156444-0.0058754-0.0069084-0.0082005 0.0014188
           dy -0.0102771 0.0142779-0.0033280-0.0016472-0.0020188 0.0007100
           dz  0.0001353-0.0024047 0.0023196 0.0000212 0.0004919 0.0014789
  13 h     dx -0.0566546 0.0288781-0.0081945 0.0040009 0.0254554-0.0059644
           dy  0.0258856-0.3054879 0.0677498-0.0000492-0.0072247 0.0022599
           dz -0.0075746 0.0679340-0.0398541 0.0002366 0.0033410 0.0017302
  14 h     dx -0.0000777 0.0003384-0.0000678 0.0005850-0.0005135 0.0002552
           dy -0.0001217 0.0003390-0.0002578 0.0009469-0.0009604-0.0007855
           dz  0.0000366-0.0004486-0.0007398-0.0002288-0.0008601-0.0043788
  15 h     dx  0.0018590-0.0009092 0.0004089 0.0009661-0.0257210 0.0053340
           dy  0.0006999 0.0002790-0.0004452 0.0000229-0.0090057 0.0034934
           dz -0.0000226-0.0002883-0.0019210 0.0003305 0.0021907 0.0065582
  16 c     dx  0.0002567 0.0012943-0.0002611-0.0040632-0.0011456-0.0000551
           dy  0.0030402-0.0004023 0.0001714-0.0067426 0.0004169 0.0009317
           dz -0.0008648-0.0002193-0.0002919 0.0010897 0.0010174 0.0053791
  17 c     dx -0.0013050 0.0010200-0.0003186-0.0029453 0.0001053 0.0000165
           dy  0.0004004 0.0021355-0.0004165 0.0071029 0.0016685 0.0014763
           dz  0.0006632 0.0004044 0.0002894-0.0010663 0.0016474 0.0058276
  18 h     dx -0.0007615-0.0001714-0.0000302 0.0013101 0.0002512 0.0008281
           dy -0.0006154 0.0005204-0.0001224 0.0001891-0.0006879-0.0012871
           dz  0.0006859-0.0004223 0.0001905-0.0009243 0.0001341 0.0001967
  19 h     dx -0.0007382-0.0002030 0.0000398 0.0013740-0.0001402-0.0006631
           dy -0.0007346 0.0005426-0.0001687 0.0002458-0.0000354 0.0013702
           dz -0.0002760 0.0000370 0.0000329 0.0007910 0.0001469-0.0005178
  20 c     dx  0.0009184-0.0006514 0.0001524-0.0006981 0.0017237 0.0001895
           dy  0.0001126-0.0004402 0.0000363-0.0009539-0.0002291 0.0010359
           dz -0.0015817 0.0001357-0.0002632-0.0011443-0.0004016-0.0008543
  21 h     dx -0.0002309 0.0001269-0.0000338 0.0010545 0.0001473-0.0002541
           dy  0.0003080-0.0008905 0.0001602-0.0002989-0.0003658-0.0012082
           dz -0.0003206 0.0005586-0.0001854 0.0009450-0.0001005 0.0000992
  22 o     dx -0.0001060-0.0004168 0.0001420 0.0000173-0.0003087-0.0000576
           dy  0.0002682-0.0000036 0.0000498 0.0000018 0.0003197-0.0000205
           dz  0.0009842-0.0004824 0.0002638-0.0005208 0.0001439 0.0003412
  23 o     dx -0.0005474 0.0009144-0.0002894 0.0013039-0.0009209-0.0000763
           dy -0.0000324 0.0001311 0.0000180 0.0002339 0.0000807-0.0000302
           dz  0.0004462 0.0000105 0.0000565 0.0000566-0.0000164 0.0001926
  24 c     dx  0.0001616 0.0000694-0.0000016-0.0000434 0.0000672-0.0000353
           dy -0.0001491 0.0000968-0.0000428 0.0001230-0.0001071-0.0001044
           dz -0.0001645-0.0000364-0.0000317 0.0000926-0.0000997-0.0000011
  25 h     dx -0.0000309 0.0000055-0.0000133 0.0000390-0.0000025-0.0000040
           dy  0.0000493-0.0000199 0.0000087-0.0000369 0.0000253 0.0000194
           dz  0.0000206-0.0000553 0.0000113-0.0000691 0.0000564 0.0000212
  26 h     dx -0.0000122 0.0000023 0.0000056 0.0000061-0.0000201 0.0000024
           dy  0.0000330 0.0000011 0.0000112-0.0000017-0.0000034 0.0000054
           dz  0.0000708-0.0000091 0.0000102-0.0000079 0.0000232 0.0000126
  27 h     dx -0.0000465-0.0000050-0.0000043 0.0000103-0.0000229 0.0000003
           dy  0.0000274-0.0000068 0.0000002-0.0000276 0.0000269 0.0000012
           dz  0.0000127 0.0000026 0.0000058-0.0000111 0.0000078-0.0000094
  28 c     dx  0.0002565 0.0046986-0.0012410 0.0007419-0.0005546 0.0002262
           dy  0.0029908-0.0018965 0.0014780 0.0013675 0.0008428-0.0001931
           dz -0.0009050 0.0015269 0.0035282-0.0002770-0.0002964-0.0001277
  29 h     dx -0.0006372-0.0001092 0.0008014-0.0003486-0.0003374-0.0000391
           dy -0.0005346-0.0000542 0.0002084-0.0001040-0.0000764 0.0000679
           dz -0.0000471 0.0000167-0.0001875-0.0001508-0.0000564 0.0000511
  30 h     dx -0.0008193 0.0010326-0.0002831-0.0004287-0.0004363 0.0000766
           dy -0.0004929 0.0005419-0.0000937-0.0002668-0.0002468 0.0000426
           dz  0.0000784-0.0000279 0.0002650 0.0000507 0.0000415-0.0000206
  31 h     dx -0.0005517-0.0004670-0.0006756-0.0003774-0.0002931 0.0001002
           dy -0.0004424-0.0001856-0.0002563-0.0000222-0.0000584-0.0000143
           dz  0.0002424-0.0000482-0.0000964 0.0001543 0.0000957 0.0000565

   ATOM              5 c                           6 c 
                  dx        dy        dz        dx        dy        dz
   5 c     dx  0.6244964
           dy -0.0053671 0.7055998
           dz  0.0218152-0.1331557 0.1632841
   6 c     dx -0.1993862-0.0893556 0.0151352 0.6231926
           dy -0.0802100-0.1621467 0.0211355-0.0098163 0.5118585
           dz  0.0145938 0.0206324-0.0639586 0.0223557-0.0938291 0.1493379
   7 c     dx -0.2296226 0.0887498-0.0297809-0.0825945-0.0060172-0.0039071
           dy  0.0870031-0.1597930 0.0274998 0.0038234 0.0260184-0.0016449
           dz -0.0283608 0.0285499-0.0608326-0.0049520-0.0034516 0.0154809
   8 c     dx -0.0432403 0.0052555-0.0026294 0.0027019-0.0041668 0.0008878
           dy  0.0084501 0.0391876-0.0057304 0.0086155-0.0147289 0.0043015
           dz -0.0040193-0.0066911 0.0094027-0.0023207 0.0037675 0.0027853
   9 n     dx  0.0313944 0.0199243-0.0031213-0.0163099-0.0169071 0.0024459
           dy -0.0101258-0.0276397 0.0035857 0.0073478 0.0173070-0.0036108
           dz  0.0034186 0.0050607-0.0083733-0.0018625-0.0047458-0.0017858
  10 c     dx -0.0295999-0.0456095 0.0088975 0.0406138 0.0145793-0.0011901
           dy -0.0265808-0.0217439 0.0058359 0.0094891-0.0164355 0.0049519
           dz  0.0048075 0.0048052 0.0074293-0.0008640 0.0053593 0.0040948
  11 h     dx -0.0018097 0.0038600-0.0011238-0.0179179-0.0159165 0.0029350
           dy  0.0024304-0.0011417 0.0011553 0.0105782 0.0112349-0.0021477
           dz -0.0007523 0.0011894 0.0031894-0.0029824-0.0031617 0.0007721
  12 o     dx  0.0002566 0.0049978-0.0010753 0.0056340-0.0029274 0.0007463
           dy -0.0036300-0.0025876 0.0001555-0.0057662-0.0026334 0.0020791
           dz  0.0009031 0.0006402-0.0009977 0.0012084 0.0020436 0.0063713
  13 h     dx -0.0059736 0.0009590-0.0007879-0.0000943 0.0003619-0.0000755
           dy  0.0019863 0.0010929 0.0013710-0.0000327 0.0004573-0.0001429
           dz -0.0009898 0.0012962 0.0060618-0.0000431-0.0001491-0.0000859
  14 h     dx -0.0020012-0.0038488 0.0007376-0.0004927 0.0007155-0.0001965
           dy -0.0031861-0.0017029 0.0008262-0.0003451 0.0006494-0.0003278
           dz  0.0002327 0.0009102 0.0028878 0.0000987-0.0001601-0.0006659
  15 h     dx -0.0059386-0.0011798-0.0003558 0.0009241-0.0009657 0.0002675
           dy -0.0022568 0.0009673 0.0011091 0.0002306-0.0003247 0.0002669
           dz  0.0001327 0.0013325 0.0063562-0.0000524-0.0000338 0.0008468
  16 c     dx  0.0046382-0.0164679 0.0041444-0.0825544 0.0315527-0.0085601
           dy -0.0133316-0.0393335 0.0113040 0.0136796-0.1620030 0.0259132
           dz  0.0024338 0.0102560 0.0064427-0.0038839 0.0260596-0.0668382
  17 c     dx  0.0003151 0.0174276-0.0038521-0.0196861 0.0167915-0.0047763
           dy  0.0153526-0.0396267 0.0106926 0.0211220-0.0060128 0.0004341
           dz -0.0022004 0.0101211 0.0050840-0.0071058 0.0013918-0.0031216
  18 h     dx -0.0006596 0.0003962-0.0000271 0.0054428-0.0006113-0.0082686
           dy  0.0030114-0.0025706 0.0007530-0.0089512-0.0136728 0.0263597
           dz -0.0022393 0.0002107-0.0006618 0.0000495 0.0066592-0.0037663
  19 h     dx -0.0007997 0.0004270-0.0004804 0.0054196 0.0040480 0.0075859
           dy  0.0030925-0.0028751 0.0005546-0.0087421-0.0240950-0.0143948
           dz  0.0001127 0.0011934-0.0007870 0.0046852 0.0058830 0.0078548
  20 c     dx  0.0006036-0.0027705 0.0005729-0.0055548 0.0007510-0.0004369
           dy -0.0007344-0.0016197 0.0011504-0.0005442-0.0022051-0.0001433
           dz -0.0008410 0.0046008-0.0009137-0.0003944-0.0006713-0.0003164
  21 h     dx -0.0002967-0.0004840-0.0000229-0.0033073-0.0011357-0.0001264
           dy -0.0019064-0.0029496 0.0007701-0.0008576-0.0004525 0.0002776
           dz  0.0013245 0.0001065-0.0004265 0.0012187-0.0008144-0.0001032
  22 o     dx -0.0011072 0.0003009-0.0005531 0.0006745-0.0000460 0.0005215
           dy  0.0000161-0.0000311-0.0001968-0.0005633 0.0004623-0.0001247
           dz -0.0005365-0.0011202-0.0001390-0.0014554 0.0018531-0.0005168
  23 o     dx  0.0001487 0.0020141 0.0004797 0.0011766-0.0014518 0.0005009
           dy  0.0001748 0.0000971-0.0005714 0.0008493 0.0010481-0.0003913
           dz  0.0003845-0.0012039 0.0004001 0.0006467 0.0002670-0.0000754
  24 c     dx  0.0002555-0.0000466-0.0000451-0.0002668 0.0000448 0.0000358
           dy  0.0001631 0.0002259 0.0001271 0.0004937-0.0003153 0.0002801
           dz -0.0000012 0.0000447 0.0001459 0.0006401-0.0007486 0.0001129
  25 h     dx -0.0000273 0.0000417 0.0000113 0.0000699-0.0001639 0.0000855
           dy  0.0000493-0.0000969 0.0000330-0.0000568 0.0000727-0.0000544
           dz -0.0000300-0.0001302 0.0000149-0.0001190 0.0001434-0.0001007
  26 h     dx -0.0000275 0.0000128-0.0000216 0.0000129 0.0000495 0.0000057
           dy  0.0000213-0.0000154 0.0000065-0.0000577 0.0000340-0.0000102
           dz  0.0000020-0.0000569-0.0000099-0.0001218 0.0000873-0.0000108
  27 h     dx -0.0000342 0.0000003 0.0000114 0.0000788-0.0000680-0.0000075
           dy -0.0000272 0.0000059-0.0000070-0.0001121 0.0000852-0.0000119
           dz -0.0000103 0.0000238-0.0000014-0.0000334 0.0001083 0.0000167
  28 c     dx -0.0006061-0.0013612 0.0002678-0.0040697-0.0001301-0.0001589
           dy -0.0013781-0.0007434-0.0000674 0.0001930 0.0005399-0.0000566
           dz  0.0003085 0.0000207-0.0005285-0.0001622-0.0000530 0.0003240
  29 h     dx -0.0004485 0.0002153-0.0002152 0.0003312 0.0002396 0.0004586
           dy  0.0002488 0.0003087-0.0000041 0.0005135-0.0003167-0.0002614
           dz  0.0001857 0.0000472 0.0000328 0.0002445 0.0003808-0.0000476
  30 h     dx  0.0000485-0.0000183 0.0000127 0.0002446 0.0001826-0.0000387
           dy  0.0000764-0.0000761 0.0000297 0.0000465 0.0005606-0.0000788
           dz -0.0000197 0.0000332 0.0000533-0.0000129-0.0000830 0.0002305
  31 h     dx -0.0004430 0.0002704 0.0000254 0.0003686 0.0000618-0.0004715
           dy  0.0001462 0.0002455-0.0000634 0.0003311-0.0002994 0.0004153
           dz -0.0003264-0.0001434 0.0000755-0.0004153-0.0002533-0.0001278

   ATOM              7 c                           8 c 
                  dx        dy        dz        dx        dy        dz
   7 c     dx  0.6357495
           dy  0.0022029 0.5054662
           dz  0.0222775-0.0840484 0.1328899
   8 c     dx -0.2189586-0.0528631 0.0056855 0.6238294
           dy -0.0315951-0.1135027 0.0097884-0.0809010 0.6121685
           dz  0.0021233 0.0111456-0.0609166 0.0340554-0.1100424 0.1559812
   9 n     dx -0.0106804-0.0299219 0.0063029-0.0917820-0.0044139 0.0005405
           dy -0.0479108-0.0530188 0.0171063 0.0004616-0.3413053 0.0656975
           dz  0.0094163 0.0169243 0.0232813-0.0008925 0.0656357-0.0667286
  10 c     dx  0.0159807-0.0014740 0.0004431-0.0254892 0.0322131-0.0087954
           dy  0.0066099 0.0126554-0.0062150 0.0330433-0.0683414 0.0168100
           dz -0.0007422-0.0055520-0.0106747-0.0085516 0.0172752-0.0018135
  11 h     dx -0.0011044-0.0011238 0.0002146 0.0000976 0.0006921-0.0001515
           dy  0.0003979 0.0004342 0.0000642 0.0003613 0.0001265 0.0000165
           dz -0.0001536 0.0000389 0.0005319-0.0001088-0.0000211 0.0001217
  12 o     dx -0.0067912-0.0045498 0.0009580 0.0086396 0.0081449-0.0013044
           dy  0.0049523 0.0007613 0.0000303-0.0042729-0.0032055 0.0004900
           dz -0.0015021-0.0003792 0.0001911 0.0013998 0.0011278-0.0001761
  13 h     dx  0.0013665 0.0010807-0.0001599-0.0001769-0.0001526-0.0000022
           dy -0.0002978-0.0003118 0.0001258-0.0004898-0.0001789 0.0002391
           dz  0.0002085 0.0002679 0.0003328 0.0000618 0.0001225 0.0009011
  14 h     dx -0.0177959 0.0132033-0.0038791-0.2575907 0.0985080-0.0281943
           dy -0.0115098 0.0111804-0.0005380 0.0968314-0.0980545 0.0169153
           dz  0.0021127 0.0001713 0.0106019-0.0275333 0.0167128-0.0397850
  15 h     dx  0.0002558 0.0003148 0.0000853-0.0041122 0.0032032-0.0009369
           dy -0.0002884-0.0001046-0.0006482 0.0018590 0.0010394 0.0002262
           dz  0.0000885-0.0006353-0.0030551-0.0010291 0.0002494 0.0017497
  16 c     dx -0.0229140-0.0192470 0.0033434 0.0011822 0.0010101 0.0000995
           dy -0.0267790-0.0096258 0.0016959 0.0045616 0.0002405 0.0009947
           dz  0.0034801 0.0018690 0.0001743-0.0008558-0.0001265 0.0026533
  17 c     dx -0.0721409-0.0280578 0.0026428 0.0053959-0.0199370 0.0045756
           dy -0.0052159-0.1414747 0.0165075-0.0048294-0.0129823 0.0010370
           dz  0.0007370 0.0268537-0.0601149 0.0014786-0.0005050-0.0027290
  18 h     dx -0.0013935 0.0000930-0.0007122-0.0002643-0.0011933-0.0003074
           dy -0.0003310 0.0000159-0.0000317-0.0004354-0.0007573 0.0002348
           dz -0.0006275-0.0011884-0.0004344 0.0004790 0.0005356-0.0005776
  19 h     dx -0.0025228 0.0008793 0.0003541-0.0001242-0.0013131 0.0007501
           dy  0.0003660-0.0000898-0.0005128-0.0004660-0.0007266-0.0002210
           dz  0.0012377 0.0008178-0.0008546-0.0001810-0.0000889-0.0002930
  20 c     dx  0.0026777 0.0062361-0.0082999 0.0061327-0.0025691 0.0002067
           dy  0.0084547-0.0359201-0.0149416-0.0023465 0.0004685-0.0003632
           dz -0.0054918-0.0136305 0.0065733-0.0016168 0.0010320 0.0008884
  21 h     dx  0.0048766-0.0007875 0.0070141-0.0003191-0.0004962-0.0001163
           dy  0.0092413-0.0149927 0.0250857 0.0018599 0.0021490-0.0007059
           dz  0.0004640 0.0055730-0.0008815-0.0014046-0.0007810 0.0005256
  22 o     dx  0.0011970-0.0005563 0.0001985-0.0008546 0.0004291-0.0002499
           dy -0.0001193 0.0016567-0.0018247 0.0011082 0.0003834 0.0000194
           dz  0.0005476 0.0031502-0.0027330 0.0011795 0.0009554-0.0005759
  23 o     dx -0.0011559-0.0015094 0.0029292-0.0050588-0.0001772-0.0000424
           dy -0.0003861 0.0037745 0.0004262 0.0004082 0.0003556-0.0001177
           dz  0.0013847 0.0011055-0.0006917 0.0006394 0.0002903-0.0001333
  24 c     dx -0.0003740 0.0009449-0.0001869 0.0004615 0.0002201-0.0000279
           dy -0.0003209 0.0006249 0.0011212-0.0003550-0.0002541 0.0000734
           dz  0.0001182-0.0007859 0.0005777-0.0006045-0.0004482 0.0001457
  25 h     dx  0.0000712-0.0000968 0.0000701-0.0001275-0.0001103 0.0000413
           dy  0.0000198 0.0000820-0.0000731 0.0000368 0.0000497-0.0000177
           dz  0.0000211-0.0000471-0.0002552 0.0002080 0.0000408 0.0000080
  26 h     dx  0.0000233-0.0000643 0.0000275-0.0000367 0.0000410-0.0000211
           dy -0.0000402 0.0001417-0.0000115 0.0000289 0.0000208-0.0000132
           dz  0.0000331 0.0001821-0.0001260 0.0001025 0.0000548-0.0000048
  27 h     dx -0.0000016-0.0001504 0.0000521-0.0000743-0.0000848 0.0000238
           dy -0.0000243 0.0000907-0.0000611 0.0000942 0.0000295-0.0000080
           dz -0.0000795 0.0002376-0.0000324 0.0001215 0.0000491-0.0000167
  28 c     dx  0.0029090 0.0014559-0.0002994-0.0034155-0.0029868 0.0004490
           dy  0.0015902 0.0001532 0.0000887-0.0013248-0.0007162 0.0001897
           dz -0.0002361 0.0000973 0.0002705 0.0001673 0.0001588 0.0004373
  29 h     dx -0.0002004-0.0004604 0.0001650 0.0004859 0.0006992-0.0000381
           dy -0.0005413-0.0001725 0.0000211 0.0005717 0.0004064-0.0000742
           dz -0.0001967-0.0000930-0.0000078 0.0002859 0.0002252-0.0000636
  30 h     dx -0.0001815-0.0001117 0.0000263 0.0002266 0.0001881-0.0000275
           dy  0.0000200-0.0000293 0.0000009 0.0000813 0.0000864-0.0000165
           dz -0.0000065 0.0000019-0.0000115-0.0000129-0.0000195 0.0000044
  31 h     dx -0.0002264-0.0004873 0.0000738 0.0005212 0.0006926-0.0002118
           dy -0.0004032-0.0001197 0.0000088 0.0003892 0.0002716-0.0000319
           dz  0.0004165 0.0001159-0.0000377-0.0004834-0.0003623 0.0000167

   ATOM              9 n                          10 c 
                  dx        dy        dz        dx        dy        dz
   9 n     dx  0.3219567
           dy -0.0446524 0.5317898
           dz  0.0200250-0.1073807 0.0930776
  10 c     dx -0.1793721 0.0549355-0.0179587 0.5017190
           dy  0.0432954-0.1112821 0.0167111 0.0391961 0.6315303
           dz -0.0157306 0.0171188-0.0511984 0.0101637-0.1129385 0.1349585
  11 h     dx -0.0001291-0.0002925 0.0000502 0.0000782-0.0000627 0.0000434
           dy  0.0001954-0.0002925 0.0000677 0.0001472 0.0003878-0.0001971
           dz -0.0000903 0.0000667 0.0000135-0.0000677-0.0002291-0.0004498
  12 o     dx -0.0002443-0.0090706 0.0017711-0.0009115 0.0045829-0.0009497
           dy  0.0016665 0.0032515-0.0005330-0.0011048 0.0005256-0.0002219
           dz -0.0004078-0.0011348 0.0003497 0.0002394 0.0000901-0.0000020
  13 h     dx  0.0002424-0.0004304 0.0001490 0.0013008 0.0007747-0.0000081
           dy  0.0004367 0.0003322-0.0002849-0.0009931 0.0004960-0.0006326
           dz -0.0002631-0.0002513-0.0009689 0.0004998-0.0005606-0.0017952
  14 h     dx  0.0079520 0.0047504-0.0008038 0.0021179-0.0022332 0.0003368
           dy  0.0269578-0.0254203 0.0055173-0.0001800-0.0028371 0.0030180
           dz -0.0064968 0.0046329-0.0060958 0.0002825 0.0034311 0.0103864
  15 h     dx -0.0008308 0.0310354-0.0069235-0.0550071-0.0366575 0.0068292
           dy  0.0074093-0.0151263 0.0041897-0.0354370-0.2975797 0.0567261
           dz -0.0009478 0.0055549 0.0010133 0.0059495 0.0564018-0.0415154
  16 c     dx -0.0004283 0.0000503-0.0001999 0.0005133-0.0015916 0.0003608
           dy  0.0015931-0.0047639 0.0008345-0.0008052 0.0021293-0.0003800
           dz -0.0007786 0.0008279-0.0007183 0.0002812-0.0003538 0.0005598
  17 c     dx -0.0036588-0.0017109 0.0003707-0.0019304 0.0002561-0.0001486
           dy -0.0022133 0.0060522-0.0000933-0.0002208-0.0020356 0.0003715
           dz -0.0007262-0.0002940 0.0036234-0.0001227 0.0003785-0.0003394
  18 h     dx -0.0003735 0.0001870 0.0004095-0.0005583-0.0000588-0.0000527
           dy -0.0008634 0.0009032-0.0004235 0.0004613-0.0011712 0.0001929
           dz  0.0007810-0.0009079 0.0004818-0.0002765 0.0008799-0.0002395
  19 h     dx -0.0004570-0.0001600-0.0003986-0.0005334 0.0000292-0.0000038
           dy -0.0008731 0.0010213 0.0000563 0.0003531-0.0011553 0.0003198
           dz -0.0000484 0.0002626 0.0000272-0.0001381-0.0000420-0.0000504
  20 c     dx -0.0035836-0.0002444 0.0005010 0.0011338 0.0001726-0.0000775
           dy  0.0017017 0.0006549-0.0003852 0.0002397-0.0001417 0.0002427
           dz  0.0025938 0.0021929-0.0008200-0.0008316-0.0007602 0.0001053
  21 h     dx  0.0003064 0.0002874-0.0001850-0.0004118-0.0001535 0.0000289
           dy -0.0001927-0.0013611-0.0001462 0.0004498 0.0005316-0.0001359
           dz  0.0002583 0.0008108-0.0001985-0.0003203-0.0004777 0.0001709
  22 o     dx  0.0002589-0.0003694 0.0001017 0.0000556 0.0004559-0.0001051
           dy -0.0005591-0.0004677 0.0002159 0.0001524 0.0001877-0.0000613
           dz -0.0012115-0.0019580 0.0007278 0.0007243 0.0008491-0.0001148
  23 o     dx  0.0028438 0.0006153-0.0004116-0.0012896-0.0004008 0.0001074
           dy -0.0004003-0.0007467 0.0002521-0.0000376 0.0001061-0.0000315
           dz -0.0006661-0.0007167 0.0002297 0.0003458 0.0000900-0.0000088
  24 c     dx -0.0003496-0.0002222 0.0001159 0.0001732-0.0000065-0.0000036
           dy  0.0002642 0.0003513-0.0000797-0.0001642-0.0001913 0.0000302
           dz  0.0004201 0.0004903-0.0001959-0.0001777-0.0001145 0.0000345
  25 h     dx  0.0000990 0.0001113-0.0000597-0.0000559 0.0000024-0.0000047
           dy -0.0000593-0.0000738 0.0000367 0.0000438-0.0000012 0.0000069
           dz -0.0001102-0.0000767 0.0000440 0.0000552 0.0000015-0.0000081
  26 h     dx  0.0000075-0.0000299 0.0000080-0.0000035 0.0000139 0.0000007
           dy -0.0000320-0.0000412 0.0000168 0.0000069 0.0000123 0.0000050
           dz -0.0000793-0.0001094 0.0000302 0.0000326 0.0000447-0.0000060
  27 h     dx  0.0000664 0.0000859-0.0000363-0.0000370-0.0000163 0.0000024
           dy -0.0000458-0.0000594 0.0000072 0.0000158 0.0000374-0.0000087
           dz -0.0000555-0.0000563 0.0000384 0.0000078 0.0000016-0.0000023
  28 c     dx  0.0000622 0.0030807-0.0005918 0.0003120-0.0003503 0.0000528
           dy  0.0010729 0.0007261-0.0001140-0.0004302-0.0001725-0.0000531
           dz -0.0003252-0.0001195-0.0000968 0.0001567 0.0000091-0.0002582
  29 h     dx  0.0004824-0.0007518 0.0001620-0.0002536 0.0003987-0.0001440
           dy -0.0002063-0.0004494 0.0000779-0.0000039 0.0000512 0.0000051
           dz  0.0000338-0.0002631 0.0000566-0.0000189 0.0000883-0.0000065
  30 h     dx -0.0000572-0.0002199 0.0000414-0.0000291 0.0002104-0.0000435
           dy  0.0000737-0.0001390 0.0000300-0.0000461 0.0001551-0.0000383
           dz -0.0000274 0.0000253-0.0000227 0.0000157-0.0000349-0.0000100
  31 h     dx  0.0005224-0.0007634 0.0001846-0.0002783 0.0004207-0.0000467
           dy -0.0001971-0.0002886 0.0000487 0.0000056 0.0000049 0.0000014
           dz  0.0001057 0.0003955-0.0000690-0.0000041-0.0000728 0.0000243

   ATOM             11 h                          12 o 
                  dx        dy        dz        dx        dy        dz
  11 h     dx  0.2633528
           dy  0.1327873 0.1342087
           dz -0.0205325-0.0216330 0.0211084
  12 o     dx -0.0013402 0.0000477 0.0001295 0.5067648
           dy -0.0006543 0.0019661-0.0013760-0.0223036 0.2967573
           dz  0.0002593-0.0012972-0.0033560 0.0207387-0.0541873 0.0832294
  13 h     dx  0.0000891-0.0012953 0.0002714 0.0019650 0.0001536 0.0000824
           dy  0.0002265-0.0005615 0.0002803 0.0009863 0.0012031-0.0004931
           dz -0.0000793 0.0002194 0.0005587-0.0000954-0.0005242-0.0009148
  14 h     dx -0.0001394 0.0000826-0.0000239-0.0002014 0.0001414-0.0000446
           dy -0.0000796 0.0000477-0.0000287 0.0002112-0.0000597 0.0000231
           dz  0.0000209-0.0000279-0.0000463-0.0001055-0.0000093 0.0000110
  15 h     dx -0.0000228 0.0000409-0.0000178-0.0000295-0.0000296 0.0000061
           dy -0.0000502 0.0000157 0.0000188-0.0004052 0.0002008-0.0000625
           dz  0.0000016 0.0000342 0.0001125 0.0001482-0.0000295 0.0000170
  16 c     dx  0.0015133-0.0006360 0.0002796 0.0000688 0.0016090-0.0003214
           dy -0.0005318 0.0005568-0.0004113-0.0006664 0.0006279-0.0001352
           dz  0.0002127-0.0003308-0.0009619 0.0000137-0.0000678 0.0000790
  17 c     dx -0.0001938 0.0000250 0.0000071-0.0010667 0.0003235-0.0001110
           dy -0.0000052 0.0000623-0.0001339 0.0023332-0.0011152 0.0002462
           dz  0.0000720-0.0000663-0.0002795 0.0005422-0.0001988-0.0006331
  18 h     dx -0.0001897-0.0000474-0.0001045 0.0001209-0.0001290-0.0000727
           dy  0.0003813 0.0001599 0.0003277 0.0001529 0.0000379 0.0001076
           dz -0.0002350 0.0000936-0.0002481-0.0003189 0.0000754-0.0000130
  19 h     dx -0.0002358-0.0000311 0.0000596-0.0000992 0.0000012 0.0000792
           dy  0.0005406-0.0001074-0.0003433 0.0002655-0.0000307-0.0000756
           dz  0.0000096-0.0002058 0.0000593 0.0001536-0.0000438 0.0000682
  20 c     dx  0.0000914-0.0000155 0.0000112 0.0016622-0.0006985 0.0002311
           dy -0.0001252-0.0000390 0.0000826-0.0026130 0.0013123-0.0003013
           dz -0.0002504-0.0000178 0.0002365-0.0030940 0.0012649-0.0002338
  21 h     dx  0.0000601-0.0000433 0.0000120 0.0001364 0.0001053-0.0000601
           dy  0.0000493-0.0000173 0.0000314 0.0000838-0.0000180 0.0000028
           dz -0.0000184 0.0000195-0.0000062 0.0000579-0.0000450 0.0001003
  22 o     dx  0.0000817-0.0000558-0.0000830 0.0001424-0.0000239-0.0000315
           dy  0.0000649 0.0000012-0.0000241 0.0009881-0.0003819 0.0001348
           dz  0.0001603-0.0000063-0.0001779 0.0021339-0.0008779 0.0002469
  23 o     dx -0.0000489-0.0000054 0.0000121-0.0014603 0.0008748-0.0001355
           dy  0.0000395 0.0000418-0.0000419 0.0012750-0.0006840 0.0001137
           dz  0.0000427 0.0000278-0.0000601 0.0006837-0.0003169 0.0000895
  24 c     dx -0.0000022 0.0000120 0.0000210 0.0003281-0.0001626 0.0000394
           dy -0.0000336-0.0000079 0.0000146-0.0006545 0.0002647-0.0000783
           dz -0.0000358-0.0000212 0.0000305-0.0009325 0.0004233-0.0001355
  25 h     dx  0.0000020-0.0000058 0.0000022-0.0001102 0.0000689-0.0000204
           dy  0.0000031 0.0000000-0.0000049 0.0000469-0.0000199 0.0000067
           dz  0.0000043 0.0000013-0.0000072 0.0000799-0.0000391 0.0000159
  26 h     dx -0.0000024 0.0000034 0.0000030 0.0000473-0.0000298 0.0000082
           dy  0.0000035 0.0000009-0.0000087 0.0000329-0.0000198 0.0000098
           dz  0.0000171-0.0000018-0.0000173 0.0001560-0.0000537 0.0000201
  27 h     dx -0.0000073 0.0000001 0.0000005-0.0001252 0.0000502-0.0000137
           dy  0.0000069 0.0000015-0.0000003 0.0001273-0.0000493 0.0000149
           dz  0.0000030 0.0000016-0.0000060 0.0000559-0.0000333 0.0000106
  28 c     dx -0.0014499-0.0003414 0.0000432-0.1548788-0.0381065 0.0055732
           dy  0.0021730-0.0009580 0.0001648-0.0654313-0.1139738 0.0109204
           dz -0.0005132 0.0001330-0.0005380 0.0121335 0.0119758-0.0599120
  29 h     dx -0.0008554 0.0003936-0.0015233-0.0172575-0.0280468-0.0204615
           dy  0.0005822 0.0001682 0.0006677-0.0153648-0.0145763-0.0072214
           dz -0.0000390 0.0006643-0.0004377-0.0033958 0.0039102 0.0067023
  30 h     dx  0.0003517 0.0001638-0.0000047-0.0354206 0.0169692-0.0050024
           dy  0.0006867 0.0004439-0.0001910-0.0188181 0.0131853-0.0036084
           dz -0.0001311-0.0002251-0.0005085 0.0032218-0.0025514 0.0003823
  31 h     dx -0.0009679 0.0010732 0.0011346-0.0191223-0.0167962 0.0290774
           dy  0.0006177-0.0004621-0.0006126-0.0133095-0.0097613 0.0146171
           dz -0.0002996-0.0006159 0.0002605 0.0084270 0.0029787 0.0035477

   ATOM             13 h                          14 h 
                  dx        dy        dz        dx        dy        dz
  13 h     dx  0.0540293
           dy -0.0305697 0.3235389
           dz  0.0088642-0.0743119 0.0324690
  14 h     dx -0.0000261 0.0000364-0.0000161 0.2685525
           dy -0.0000633-0.0000067-0.0000445-0.1106262 0.1168337
           dz  0.0000208-0.0000525-0.0001623 0.0315678-0.0248555 0.0271099
  15 h     dx -0.0002752 0.0007821-0.0002260 0.0001112 0.0008955-0.0003066
           dy -0.0008463 0.0000300 0.0000467-0.0000970-0.0003851 0.0004589
           dz  0.0001491 0.0001710 0.0004888-0.0000014 0.0005582 0.0016930
  16 c     dx  0.0000843 0.0000313-0.0000196-0.0003278-0.0000049-0.0000719
           dy  0.0001056 0.0000049 0.0000150 0.0000424 0.0001152-0.0001507
           dz -0.0000166 0.0000056 0.0000493 0.0000194-0.0001027-0.0006122
  17 c     dx -0.0002994 0.0001467 0.0000043 0.0003883 0.0007012-0.0000262
           dy  0.0002543-0.0002759-0.0003810 0.0002367 0.0001542-0.0004941
           dz  0.0000350-0.0003478-0.0015999-0.0001610-0.0004201-0.0009415
  18 h     dx -0.0000244-0.0000082-0.0000164-0.0000265 0.0000597 0.0002721
           dy  0.0000301-0.0000291-0.0000116-0.0000680-0.0000093 0.0000131
           dz -0.0000192 0.0000174-0.0000033 0.0000347 0.0000166 0.0000432
  19 h     dx -0.0000160-0.0000093 0.0000102-0.0000060-0.0000305-0.0002380
           dy  0.0000381-0.0000151 0.0000292-0.0000758-0.0000120 0.0000160
           dz -0.0000008 0.0000006-0.0000136 0.0000188 0.0000067 0.0000486
  20 c     dx  0.0000745-0.0001127-0.0002653-0.0019918-0.0012952-0.0006746
           dy  0.0000175 0.0000104-0.0002549 0.0003544 0.0004213-0.0000941
           dz -0.0002028 0.0002387 0.0004267-0.0001434-0.0002209 0.0001362
  21 h     dx  0.0000134 0.0000365 0.0001264-0.0001788 0.0000115 0.0000449
           dy  0.0000689 0.0000562 0.0003916-0.0004389 0.0000606 0.0004096
           dz -0.0000088-0.0000134 0.0000078 0.0001879 0.0000714-0.0001880
  22 o     dx  0.0000032-0.0000018-0.0000829 0.0003517 0.0002905 0.0001241
           dy  0.0000153-0.0000293-0.0000220-0.0001525-0.0000587-0.0000521
           dz  0.0000736-0.0001128-0.0002233 0.0003102 0.0003221-0.0000824
  23 o     dx -0.0000478 0.0001081 0.0002159 0.0013478 0.0008460 0.0004536
           dy -0.0000014-0.0000481-0.0000152 0.0002009-0.0000631 0.0000535
           dz  0.0000566-0.0000631-0.0000677 0.0000667 0.0001011-0.0002025
  24 c     dx  0.0000052-0.0000137-0.0000062-0.0000171 0.0000569-0.0000541
           dy -0.0000124 0.0000278 0.0000479-0.0000448-0.0000362-0.0000212
           dz -0.0000150 0.0000440 0.0000257-0.0000579-0.0001166-0.0000011
  25 h     dx -0.0000024 0.0000098 0.0000093 0.0000044-0.0000190 0.0000094
           dy  0.0000031-0.0000051-0.0000106 0.0000005 0.0000102-0.0000153
           dz  0.0000029-0.0000060-0.0000101-0.0000367-0.0000057-0.0000443
  26 h     dx  0.0000001-0.0000041-0.0000014 0.0000220 0.0000119 0.0000195
           dy  0.0000020-0.0000043-0.0000067 0.0000041 0.0000001 0.0000071
           dz  0.0000054-0.0000059-0.0000108 0.0000083 0.0000129-0.0000033
  27 h     dx -0.0000030 0.0000050 0.0000055-0.0000070-0.0000186 0.0000057
           dy  0.0000017-0.0000035-0.0000001 0.0000024 0.0000003 0.0000064
           dz  0.0000022-0.0000049-0.0000007-0.0000174-0.0000019-0.0000070
  28 c     dx -0.0000991-0.0001249 0.0000248 0.0000883-0.0000690 0.0000489
           dy  0.0000939 0.0003122-0.0001372 0.0000616-0.0000579-0.0000526
           dz -0.0000157-0.0001392-0.0002191-0.0000047-0.0000536-0.0002542
  29 h     dx  0.0001327 0.0000954-0.0000683 0.0000050-0.0000079-0.0000669
           dy  0.0001014 0.0000316-0.0000648-0.0000217 0.0000164 0.0000031
           dz  0.0000589 0.0000279-0.0000086 0.0000028 0.0000115 0.0000114
  30 h     dx -0.0000101-0.0000541 0.0000132-0.0000059 0.0000104-0.0000053
           dy  0.0000268-0.0000170 0.0000074 0.0000101 0.0000039-0.0000019
           dz -0.0000072 0.0000048 0.0000104-0.0000026-0.0000026-0.0000081
  31 h     dx  0.0001338 0.0001233 0.0000251 0.0000032 0.0000203 0.0000431
           dy  0.0000641 0.0000430 0.0000481-0.0000211 0.0000088-0.0000028
           dz -0.0000884-0.0000451-0.0000219 0.0000065-0.0000087 0.0000230

   ATOM             15 h                          16 c 
                  dx        dy        dz        dx        dy        dz
  15 h     dx  0.0618819
           dy  0.0291741 0.3203372
           dz -0.0042558-0.0650646 0.0294636
  16 c     dx -0.0002895-0.0001179 0.0000761 0.3921938
           dy -0.0001631-0.0001789-0.0001925 0.0656377 0.4837955
           dz  0.0000832-0.0002235-0.0010114-0.0133101 0.0184972 0.5139527
  17 c     dx  0.0001809-0.0001360-0.0001036-0.1218513 0.0014011-0.0012569
           dy -0.0000303-0.0000847-0.0000280-0.0047849-0.0656292-0.0020536
           dz  0.0000130-0.0000112 0.0001220-0.0037313-0.0032884-0.0777670
  18 h     dx  0.0000297-0.0000745-0.0003575-0.0677095-0.0172682 0.0719793
           dy -0.0000693 0.0000492 0.0003622-0.0209328-0.0512011 0.0570973
           dz -0.0000059-0.0000187-0.0000876 0.0760319 0.0522512-0.2396815
  19 h     dx -0.0000012 0.0000683 0.0003462-0.0711504-0.0541217-0.0572694
           dy -0.0000403-0.0001034-0.0003465-0.0596162-0.1503852-0.1122749
           dz  0.0000296 0.0000420 0.0001035-0.0601664-0.1101522-0.1450327
  20 c     dx -0.0001210-0.0000008 0.0000739-0.0147289 0.0143660 0.0182168
           dy  0.0000089 0.0001566 0.0001794 0.0049728 0.0031481 0.0058402
           dz -0.0000360 0.0002623-0.0000689 0.0083474 0.0074416 0.0039018
  21 h     dx -0.0000266 0.0000129-0.0000618-0.0105471 0.0074068-0.0212325
           dy -0.0000343-0.0000442-0.0001016-0.0012122 0.0010237-0.0021160
           dz  0.0000077 0.0000158-0.0000028 0.0019367-0.0014385 0.0024958
  22 o     dx  0.0000318-0.0000228 0.0000435-0.0018810-0.0008265 0.0003880
           dy -0.0000121-0.0000497 0.0000179-0.0003334-0.0002527-0.0020087
           dz  0.0000386-0.0001960 0.0000144-0.0013081-0.0016298-0.0028867
  23 o     dx  0.0000773 0.0000266-0.0000490 0.0015181 0.0029547 0.0022992
           dy -0.0000018-0.0000798-0.0000082-0.0012621-0.0034173-0.0045159
           dz  0.0000051-0.0000742 0.0000037-0.0001746-0.0042429-0.0016142
  24 c     dx  0.0000032-0.0000240 0.0000020-0.0001473-0.0000467 0.0005366
           dy -0.0000043 0.0000458-0.0000153-0.0001139 0.0001457 0.0004666
           dz -0.0000102 0.0000733 0.0000015-0.0005259 0.0001786 0.0003644
  25 h     dx -0.0000007 0.0000136 0.0000052-0.0000224 0.0000561 0.0000646
           dy  0.0000001-0.0000058-0.0000020-0.0000529-0.0000668-0.0001054
           dz -0.0000036-0.0000034-0.0000000-0.0000601 0.0000188-0.0000664
  26 h     dx  0.0000022-0.0000077-0.0000016 0.0000960-0.0000184-0.0000602
           dy  0.0000007-0.0000066-0.0000046-0.0000859 0.0000134 0.0000429
           dz  0.0000006-0.0000109 0.0000014-0.0001548-0.0000542 0.0000189
  27 h     dx -0.0000012 0.0000090-0.0000021 0.0000678 0.0000333 0.0000390
           dy  0.0000010-0.0000080 0.0000027-0.0000865 0.0000370 0.0000506
           dz -0.0000008-0.0000070-0.0000061-0.0000786-0.0000074 0.0000284
  28 c     dx -0.0000623 0.0001047-0.0000504 0.0002188-0.0001425 0.0001055
           dy -0.0000271 0.0000804 0.0000342 0.0000674 0.0001737 0.0000592
           dz -0.0000093 0.0000243 0.0001918-0.0000562 0.0000590 0.0003367
  29 h     dx -0.0000026 0.0000003 0.0000495 0.0000395 0.0000428 0.0000090
           dy  0.0000115-0.0000262-0.0000029-0.0000110 0.0000335-0.0000118
           dz  0.0000068-0.0000031-0.0000081 0.0000255 0.0000127-0.0000569
  30 h     dx -0.0000017-0.0000189 0.0000063-0.0000128 0.0000020-0.0000035
           dy -0.0000017 0.0000014 0.0000028-0.0000045 0.0000012-0.0000146
           dz -0.0000004 0.0000011 0.0000105 0.0000024-0.0000070-0.0000283
  31 h     dx  0.0000018-0.0000148-0.0000256 0.0000503 0.0000209-0.0000444
           dy  0.0000070-0.0000205 0.0000094-0.0000156 0.0000121-0.0000327
           dz -0.0000101 0.0000085-0.0000184-0.0000140-0.0000369-0.0000055

   ATOM             17 c                          18 h 
                  dx        dy        dz        dx        dy        dz
  17 c     dx  0.4177604
           dy -0.0627036 0.4004854
           dz  0.0555050-0.0451464 0.5035094
  18 h     dx -0.0116622-0.0055572 0.0249667 0.0753248
           dy  0.0002289 0.0000528-0.0006311 0.0214373 0.0615623
           dz -0.0021496-0.0011068 0.0015949-0.0797548-0.0615425 0.2614185
  19 h     dx -0.0107079-0.0167165-0.0169712 0.0037233 0.0062549 0.0068175
           dy  0.0004174 0.0014049 0.0013493 0.0023796 0.0055875 0.0049138
           dz -0.0002188 0.0018216 0.0002839-0.0091807-0.0188196-0.0203262
  20 c     dx -0.0816776 0.0085904 0.0282802-0.0027535 0.0003907-0.0008454
           dy  0.0161917-0.0823061-0.0360236-0.0023459 0.0003251-0.0000492
           dz  0.0277418-0.0268678-0.1153557-0.0010794-0.0010882-0.0000320
  21 h     dx -0.0774835 0.0269320-0.0827660 0.0009767 0.0001265-0.0001165
           dy  0.0295592-0.0583451 0.0713228 0.0003283 0.0008595-0.0003461
           dz -0.0812016 0.0650023-0.2341007 0.0002220-0.0002878 0.0017784
  22 o     dx  0.0086354-0.0002001 0.0061517 0.0002562 0.0006583 0.0007157
           dy -0.0061099-0.0002151-0.0217752 0.0003151-0.0003817-0.0002635
           dz -0.0120694-0.0136453-0.0339126 0.0001068-0.0001931-0.0003861
  23 o     dx -0.0257117 0.0246901 0.0012346-0.0006150 0.0001443 0.0006271
           dy  0.0329402-0.0009655-0.0044476 0.0013630-0.0002968-0.0001024
           dz  0.0201925-0.0105703 0.0077927 0.0005604 0.0001649 0.0000355
  24 c     dx -0.0014945 0.0005365-0.0046016 0.0000538 0.0000968 0.0000347
           dy  0.0005939 0.0055650-0.0013368-0.0000896 0.0001626 0.0002558
           dz -0.0035594 0.0014607-0.0000224-0.0000692 0.0002616 0.0004048
  25 h     dx -0.0002157 0.0000044 0.0000968-0.0000223 0.0000604 0.0000575
           dy -0.0000026-0.0007586 0.0002356 0.0000131-0.0000380-0.0000443
           dz -0.0003333-0.0008548 0.0003138 0.0000051-0.0000670-0.0000601
  26 h     dx  0.0005778 0.0000371 0.0005253-0.0000066-0.0000228-0.0000252
           dy -0.0004661 0.0001789-0.0007185 0.0000147 0.0000058 0.0000096
           dz -0.0008424-0.0000103-0.0008329 0.0000251 0.0000141-0.0000044
  27 h     dx -0.0001755 0.0001021 0.0001894-0.0000107 0.0000212 0.0000516
           dy -0.0001755 0.0000222-0.0002128 0.0000005-0.0000217-0.0000467
           dz  0.0003070 0.0007807-0.0005792-0.0000081-0.0000238-0.0000317
  28 c     dx  0.0005078-0.0010124-0.0001912 0.0000135-0.0000457 0.0001267
           dy  0.0002256-0.0003330-0.0000791-0.0000170-0.0000759 0.0001070
           dz  0.0000006 0.0000248 0.0000519 0.0000665-0.0000416-0.0000269
  29 h     dx -0.0000467 0.0001449 0.0000150 0.0000058-0.0000014-0.0000023
           dy -0.0000785 0.0001613 0.0000690 0.0000081 0.0000045-0.0000183
           dz -0.0000417 0.0000562 0.0000127-0.0000068 0.0000029-0.0000230
  30 h     dx -0.0000456 0.0000932 0.0000236 0.0000005 0.0000090-0.0000151
           dy -0.0000022 0.0000028-0.0000120-0.0000066 0.0000074-0.0000088
           dz -0.0000020-0.0000002-0.0000039 0.0000041 0.0000012 0.0000048
  31 h     dx -0.0000606 0.0001506 0.0000283-0.0000170 0.0000234-0.0000208
           dy -0.0000561 0.0001058 0.0000044-0.0000005 0.0000172-0.0000034
           dz  0.0000625-0.0000977 0.0000044 0.0000153-0.0000177 0.0000301

   ATOM             19 h                          20 c 
                  dx        dy        dz        dx        dy        dz
  19 h     dx  0.0792365
           dy  0.0622184 0.1694011
           dz  0.0617103 0.1199194 0.1598000
  20 c     dx -0.0006394 0.0001176 0.0003233 0.7818678
           dy -0.0014355 0.0006913-0.0000207-0.2380875 0.3569476
           dz -0.0035933-0.0016572 0.0008579 0.0543624 0.0886545 0.4655850
  21 h     dx -0.0029356 0.0003157-0.0005342 0.0033608-0.0030538 0.0106867
           dy -0.0005977 0.0000149-0.0003200-0.0046953 0.0046036-0.0195610
           dz -0.0000666 0.0001977 0.0004047-0.0102239 0.0062053-0.0256621
  22 o     dx  0.0003654 0.0016361 0.0021137-0.1290236 0.0136310-0.0426965
           dy  0.0003983-0.0002991-0.0003265 0.0055236-0.0748159-0.0288457
           dz  0.0014637-0.0002173-0.0013838-0.0617832-0.0247312-0.1798152
  23 o     dx  0.0004326 0.0000165-0.0002627-0.5698285 0.2138235-0.0321114
           dy -0.0001078 0.0000543 0.0002317 0.2107894-0.1669174 0.0035319
           dz  0.0006811 0.0003839-0.0001675-0.0369474 0.0036915-0.1002421
  24 c     dx  0.0003276 0.0000919 0.0000526 0.0181492-0.0106677-0.0059608
           dy  0.0005079-0.0000283-0.0001506-0.0077182-0.0042790-0.0221464
           dz  0.0007453 0.0003016-0.0001263-0.0005812-0.0244618-0.0599647
  25 h     dx  0.0001562 0.0000445-0.0000605-0.0014977-0.0000220-0.0041934
           dy -0.0001014-0.0000121 0.0000565 0.0007659 0.0015434 0.0009153
           dz -0.0002290-0.0000248 0.0000638 0.0076266-0.0000435 0.0041009
  26 h     dx -0.0000401-0.0000520-0.0000098-0.0041199 0.0027806 0.0018313
           dy  0.0000219 0.0000356-0.0000024 0.0037775-0.0018716-0.0008060
           dz  0.0000195 0.0000379-0.0000114 0.0048126-0.0023420-0.0002982
  27 h     dx  0.0000254 0.0000494-0.0000654 0.0002424-0.0010768-0.0025013
           dy -0.0000915-0.0000266 0.0000756 0.0054698-0.0001994 0.0043518
           dz -0.0000508-0.0000569 0.0000523 0.0045748-0.0022740 0.0037744
  28 c     dx  0.0001115-0.0000982-0.0000713-0.0007786 0.0011497 0.0013677
           dy  0.0000169-0.0000944-0.0000555-0.0003045 0.0005358 0.0006462
           dz -0.0000550 0.0000672-0.0000035 0.0000931-0.0000745 0.0000203
  29 h     dx -0.0000217 0.0000255-0.0000003 0.0000325-0.0000717-0.0001287
           dy -0.0000222 0.0000240 0.0000003 0.0001234-0.0002171-0.0002802
           dz -0.0000248 0.0000217 0.0000186 0.0000075-0.0000368-0.0000590
  30 h     dx -0.0000061 0.0000132 0.0000059 0.0000784-0.0001132-0.0001483
           dy -0.0000098 0.0000116 0.0000070-0.0000432 0.0000490 0.0000508
           dz -0.0000001-0.0000033 0.0000010 0.0000128-0.0000147-0.0000131
  31 h     dx  0.0000001 0.0000008 0.0000032 0.0000424-0.0000614-0.0001144
           dy -0.0000010 0.0000030 0.0000002 0.0001238-0.0001663-0.0001823
           dz  0.0000216-0.0000224-0.0000267-0.0000957 0.0001002 0.0000791

   ATOM             21 h                          22 o 
                  dx        dy        dz        dx        dy        dz
  21 h     dx  0.0853156
           dy -0.0320929 0.0724396
           dz  0.0856520-0.0710050 0.2566108
  22 o     dx -0.0003684 0.0018002 0.0032278 0.2910856
           dy  0.0013612-0.0020563-0.0025654-0.0743470 0.1501507
           dz  0.0015204-0.0030809-0.0031650 0.0476788 0.1117524 0.4061791
  23 o     dx  0.0001276-0.0016852-0.0007073-0.0604451 0.0155056-0.0572018
           dy  0.0002745 0.0002370 0.0000786 0.0150771 0.0252183 0.0098854
           dz  0.0002566 0.0012710 0.0037741-0.0600703 0.0105630-0.0127720
  24 c     dx  0.0004097-0.0006523-0.0009136-0.1032436 0.0355496 0.0434057
           dy  0.0002734-0.0003713-0.0003670 0.0276087-0.0888661-0.0393914
           dz  0.0001722-0.0005391-0.0003086 0.0230893-0.0320073-0.1178205
  25 h     dx  0.0000451 0.0000173 0.0000250-0.0120111 0.0016871 0.0136748
           dy -0.0000305 0.0000466 0.0000682 0.0185964 0.0087349-0.0107687
           dz -0.0000353 0.0000322-0.0000154 0.0241189 0.0058151-0.0203243
  26 h     dx -0.0000323 0.0000989 0.0001818 0.0113022 0.0025300 0.0190378
           dy  0.0000971-0.0001826-0.0002248-0.0101688-0.0034531-0.0198630
           dz  0.0001405-0.0002512-0.0002486-0.0137833-0.0058103-0.0299757
  27 h     dx -0.0000184 0.0000208 0.0000159-0.0062137 0.0174894 0.0037110
           dy  0.0000469-0.0000729-0.0001340 0.0067474-0.0155349-0.0099953
           dz  0.0000339-0.0001002-0.0002167 0.0087180-0.0327374-0.0015188
  28 c     dx -0.0000437-0.0000689-0.0000056-0.0000735-0.0004488-0.0009555
           dy -0.0000186-0.0000408 0.0000039-0.0001070-0.0002042-0.0004842
           dz  0.0000293 0.0000336-0.0000233-0.0000311 0.0000117-0.0000344
  29 h     dx  0.0000180-0.0000027 0.0000090 0.0000015 0.0000269 0.0000642
           dy  0.0000116 0.0000124-0.0000034 0.0000277 0.0000813 0.0002028
           dz  0.0000177-0.0000021 0.0000032 0.0000208 0.0000157 0.0000354
  30 h     dx  0.0000030 0.0000094-0.0000019 0.0000077 0.0000484 0.0001060
           dy  0.0000077-0.0000068 0.0000060 0.0000072-0.0000223-0.0000455
           dz -0.0000021 0.0000032-0.0000007-0.0000000 0.0000068 0.0000111
  31 h     dx  0.0000134-0.0000070 0.0000121-0.0000025 0.0000286 0.0000575
           dy -0.0000054 0.0000161 0.0000007 0.0000058 0.0000627 0.0001402
           dz -0.0000123-0.0000077-0.0000022-0.0000036-0.0000366-0.0000534

   ATOM             23 o                          24 c 
                  dx        dy        dz        dx        dy        dz
  23 o     dx  0.6600773
           dy -0.2577200 0.1457448
           dz  0.0763777-0.0061244 0.0969889
  24 c     dx -0.0057644-0.0013521-0.0039397 0.5411314
           dy  0.0046035-0.0056199 0.0058835 0.0330567 0.5169144
           dz  0.0123533-0.0010379 0.0056822 0.0716693-0.0577159 0.4809151
  25 h     dx  0.0012953-0.0006221 0.0004912-0.2184083-0.1073288 0.0530065
           dy  0.0000564-0.0002900-0.0010853-0.1109095-0.1140245 0.0352936
           dz -0.0030481 0.0012506 0.0002600 0.0477735 0.0307800-0.0598515
  26 h     dx  0.0018466-0.0012620-0.0017953-0.1732492-0.0015573-0.1391281
           dy -0.0006843 0.0012450 0.0008703 0.0023818-0.0463631 0.0076731
           dz -0.0004772 0.0002592 0.0008109-0.1290171 0.0033252-0.1799483
  27 h     dx  0.0002790 0.0003035 0.0008584-0.0578034 0.0505159-0.0170932
           dy -0.0026732 0.0013718 0.0004485 0.0510732-0.2639964 0.0717913
           dz -0.0021722 0.0007358-0.0005932-0.0189046 0.0791287-0.0699398
  28 c     dx  0.0006948-0.0005717-0.0002916-0.0001392 0.0002950 0.0004161
           dy  0.0002995-0.0002537-0.0001416-0.0000385 0.0001357 0.0001923
           dz -0.0001008 0.0000473-0.0000226 0.0000301-0.0000157 0.0000012
  29 h     dx -0.0000060 0.0000261 0.0000267 0.0000064-0.0000117-0.0000255
           dy -0.0001271 0.0001071 0.0000669 0.0000235-0.0000550-0.0000860
           dz -0.0000011 0.0000081 0.0000066-0.0000031-0.0000053-0.0000079
  30 h     dx -0.0000690 0.0000581 0.0000350 0.0000164-0.0000329-0.0000458
           dy  0.0000480-0.0000321-0.0000163-0.0000107 0.0000195 0.0000244
           dz -0.0000111 0.0000076 0.0000029 0.0000011-0.0000039-0.0000039
  31 h     dx -0.0000055 0.0000304 0.0000182 0.0000074-0.0000141-0.0000268
           dy -0.0001139 0.0000834 0.0000445 0.0000216-0.0000456-0.0000621
           dz  0.0000698-0.0000470-0.0000038-0.0000144 0.0000233 0.0000218

   ATOM             25 h                          26 h 
                  dx        dy        dz        dx        dy        dz
  25 h     dx  0.2378461
           dy  0.1131716 0.1169514
           dz -0.0650207-0.0313508 0.0688286
  26 h     dx -0.0136454 0.0021739-0.0177892 0.1805759
           dy -0.0104102 0.0006747-0.0114083-0.0032357 0.0468046
           dz  0.0050271 0.0001822 0.0081701 0.1399978 0.0042894 0.2067533
  27 h     dx  0.0065058-0.0237611 0.0069643-0.0033222 0.0187572-0.0058758
           dy  0.0034731-0.0127512 0.0059732-0.0014643 0.0028236 0.0002754
           dz -0.0032722 0.0066391-0.0011363-0.0027952 0.0201118-0.0043656
  28 c     dx  0.0000447-0.0000208-0.0000380-0.0000177-0.0000095-0.0000710
           dy  0.0000163-0.0000114-0.0000207-0.0000056-0.0000081-0.0000413
           dz -0.0000024-0.0000009 0.0000024 0.0000009-0.0000075-0.0000072
  29 h     dx -0.0000022 0.0000015 0.0000005 0.0000003 0.0000041 0.0000063
           dy -0.0000108 0.0000051 0.0000079 0.0000048 0.0000056 0.0000147
           dz  0.0000010 0.0000015 0.0000014-0.0000019-0.0000002 0.0000051
  30 h     dx -0.0000052 0.0000021 0.0000039 0.0000027 0.0000016 0.0000073
           dy  0.0000036-0.0000007-0.0000024-0.0000025 0.0000006-0.0000017
           dz  0.0000000 0.0000002 0.0000013-0.0000006-0.0000004 0.0000013
  31 h     dx -0.0000026 0.0000014 0.0000006 0.0000007 0.0000021 0.0000051
           dy -0.0000078 0.0000028 0.0000069 0.0000032 0.0000022 0.0000099
           dz  0.0000012-0.0000008-0.0000017-0.0000004 0.0000025-0.0000040

   ATOM             27 h                          28 c 
                  dx        dy        dz        dx        dy        dz
  27 h     dx  0.0605014
           dy -0.0622676 0.2882019
           dz  0.0136841-0.0725063 0.0745324
  28 c     dx  0.0000575-0.0000597-0.0000221 0.4614181
           dy  0.0000266-0.0000267-0.0000144-0.0806566 0.5360597
           dz -0.0000027 0.0000024-0.0000050 0.0165649-0.0028844 0.5358484
  29 h     dx -0.0000026 0.0000025 0.0000022-0.0451679-0.0002622-0.0020925
           dy -0.0000100 0.0000102 0.0000066-0.0036117-0.1718179-0.1208520
           dz -0.0000027 0.0000011-0.0000000-0.0056980-0.1218966-0.1628005
  30 h     dx -0.0000058 0.0000065 0.0000026-0.1605677 0.1232249-0.0311521
           dy  0.0000030-0.0000039-0.0000009 0.1357921-0.1819280 0.0345430
           dz -0.0000005 0.0000009-0.0000002-0.0339903 0.0341638-0.0555005
  31 h     dx -0.0000032 0.0000031 0.0000014-0.0459083-0.0036213 0.0127157
           dy -0.0000075 0.0000087 0.0000040-0.0050752-0.0758377 0.0793226
           dz  0.0000054-0.0000053 0.0000004 0.0174403 0.0805633-0.2576659

   ATOM             29 h                          30 h 
                  dx        dy        dz        dx        dy        dz
  29 h     dx  0.0534389
           dy  0.0143683 0.1909320
           dz  0.0079897 0.1334638 0.1696296
  30 h     dx  0.0029161-0.0005190 0.0006798 0.1916430
           dy  0.0137171-0.0131162 0.0055284-0.1337976 0.1891711
           dz  0.0145742-0.0146899 0.0046265 0.0346161-0.0368260 0.0528642
  31 h     dx  0.0015541 0.0018089-0.0002622 0.0039263 0.0062256-0.0189481
           dy  0.0028014 0.0086326-0.0205647-0.0017550-0.0061958 0.0195379
           dz  0.0004560 0.0079521-0.0181329-0.0000477-0.0000043-0.0032429

   ATOM             31 h 
                  dx        dy        dz
  31 h     dx  0.0550041
           dy  0.0144131 0.0835848
           dz -0.0244523-0.0919210 0.2751434
 

   *** projected hessian written onto $hessian (projected), file=<hessian> ***

 dipole moment in principle axis system (a.u.) :
    -1.3204310881    -1.9121506923    -0.0674859924
 norm :   2.32473931605229     

 rotational constants b for rotations around axis of inertia
 and optical intensities for (1 <-- 0) transition

   b   :     0.0233906137     0.0095654982     0.0076338304   (cm**(-1))
   b   :         701.2330         286.7664         228.8565     (MHz)
  int. :     1.7435382585     3.6563202699     0.0045543592     (a.u.)

   x   :     0.7466522676     0.6631122827    -0.0528440328
   y   :    -0.6599822188     0.7284943380    -0.1836286210
   z   :    -0.0832698153     0.1719828483     0.9815742650

   ***  normal modes written onto $vibrational normal modes, file=<vib_normal_modes>  ***

 keyword $vibrational reduced masses missing in file <control>


   ***  vibrational spectroscopic data written onto$vibrational spectrum   
        file=<vibspectrum>  ***

          ---------------------------------------------------
          NORMAL MODES and VIBRATIONAL FREQUENCIES (cm**(-1))
          ---------------------------------------------------

 imaginary wave numbers indicate a negative curvature of the energy surface.
 zero frequency modes have no physical meaning except being generators of
 translations and rotations. each vibrational normal mode - given in terms of
 cartesian displacement vectors of all atoms - has been normalized to unity.
 to obtain mass-weigthed normal coordinates in a.u. divide the tabulated
 modes by sqrt(reduced mass * 1822.88853).
 band intensities or cross sections refer to independent non-degenerate normal
 modes, that is, the intensities of degenerate modes have yet to be added.
 dDIP/dQ is the normal mode derivative of the dipole moment.


       mode               1        2        3        4        5        6

     frequency           0.00     0.00     0.00     0.00     0.00     0.00

     symmetry                                                             

        IR                -        -        -        -        -        - 
|dDIP/dQ|   (a.u.)     0.0000   0.0000   0.0000   0.0000   0.0000   0.0000
intensity (km/mol)       0.00     0.00     0.00     0.00     0.00     0.00
intensity (  %   )       0.00     0.00     0.00     0.00     0.00     0.00
 
       RAMAN              -        -        -        -        -        - 
 
  1   c           x   0.00185  0.08860  0.09410  0.02071 -0.11155 -0.02720
                  y   0.10434 -0.09889 -0.00021 -0.00590 -0.12746  0.10311
                  z  -0.01183  0.03242  0.00263  0.19996  0.01668  0.07629
  2   c           x   0.07302  0.09856  0.09835 -0.00360 -0.11562 -0.00645
                  y   0.11182 -0.10803  0.01807 -0.00881 -0.11399  0.09758
                  z   0.01474 -0.00769  0.08103  0.18933  0.07498  0.05085
  3   c           x   0.11530  0.10444  0.09978 -0.01529 -0.11914  0.00485
                  y   0.05173 -0.12077  0.02919 -0.00527 -0.09759  0.08286
                  z   0.03429 -0.03012  0.15695  0.10910  0.13860  0.06372
  4   c           x   0.08405  0.10002  0.09659 -0.00130 -0.11868 -0.00549
                  y  -0.01807 -0.12405  0.02094  0.00151 -0.09523  0.07367
                  z   0.02650 -0.01109  0.15273  0.03774  0.14283  0.10365
  5   c           x   0.01106  0.08981  0.09232  0.02341 -0.11442 -0.02668
                  y  -0.02383 -0.11455  0.00233  0.00432 -0.10917  0.07962
                  z  -0.00086  0.03001  0.07147  0.05077  0.08219  0.12894
  6   c           x  -0.02990  0.08412  0.09102  0.03452 -0.11092 -0.03755
                  y   0.03386 -0.10239 -0.00820  0.00090 -0.12480  0.09371
                  z  -0.01977  0.05177 -0.00182  0.12781  0.02082  0.11674
  7   c           x  -0.02642  0.08452  0.08869  0.03969 -0.11367 -0.03890
                  y  -0.08973 -0.11632 -0.00789  0.01102 -0.10885  0.07185
                  z  -0.01124  0.05245  0.05828 -0.01431  0.07923  0.16907
  8   c           x   0.01076  0.08969  0.08981  0.02975 -0.11690 -0.02908
                  y  -0.15176 -0.12860  0.00197  0.01489 -0.09320  0.05725
                  z   0.00649  0.03292  0.12924 -0.09541  0.13931  0.18437
  9   n           x   0.07885  0.09921  0.09365  0.00707 -0.12102 -0.00945
                  y  -0.14918 -0.13765  0.01911  0.01252 -0.08001  0.05129
                  z   0.03218 -0.00537  0.20629 -0.11068  0.19711  0.16195
 10   c           x   0.11522  0.10433  0.09686 -0.00796 -0.12206  0.00212
                  y  -0.08339 -0.13527  0.02818  0.00597 -0.08122  0.05947
                  z   0.04214 -0.02720  0.21816 -0.04510  0.19905  0.12208
 11   h           x  -0.02868  0.08436  0.09319  0.02885 -0.10889 -0.03524
                  y   0.15000 -0.08954 -0.00804 -0.00867 -0.13943  0.11408
                  z  -0.02608  0.04857 -0.05321  0.26043 -0.03026  0.06605
 12   o           x   0.11169  0.10400  0.10167 -0.01933 -0.11682  0.00575
                  y   0.17469 -0.10632  0.02780 -0.01521 -0.11432  0.10501
                  z   0.02575 -0.03076  0.09688  0.25093  0.08025  0.01153
 13   h           x   0.17085  0.11222  0.10332 -0.03482 -0.12209  0.02125
                  y   0.06307 -0.12745  0.04376 -0.00803 -0.08755  0.07940
                  z   0.05471 -0.06153  0.21566  0.10699  0.18167  0.04153
 14   h           x  -0.01667  0.08583  0.08767  0.04038 -0.11584 -0.03755
                  y  -0.20417 -0.13116 -0.00404  0.01995 -0.09128  0.05028
                  z  -0.00087  0.04949  0.12162 -0.14837  0.13917  0.21579
 15   h           x   0.17121  0.11215  0.09973 -0.02589 -0.12574  0.01799
                  y  -0.08452 -0.14277  0.04171  0.00436 -0.07041  0.05421
                  z   0.06346 -0.05864  0.28295 -0.06116  0.24798  0.10496
 16   c           x  -0.10414  0.07370  0.08569  0.06213 -0.10758 -0.06002
                  y   0.00508 -0.09451 -0.02854  0.00582 -0.13718  0.09626
                  z  -0.04626  0.09401 -0.07418  0.11537 -0.03072  0.15215
 17   c           x  -0.10307  0.07385  0.08561  0.06212 -0.10778 -0.05984
                  y  -0.07683 -0.10564 -0.02484  0.01209 -0.12386  0.08046
[...]
                  z   0.02048 -0.00095 -0.00001 -0.00005  0.00001  0.00002
  4   c           x  -0.00530  0.00071 -0.00047  0.00044  0.00001 -0.00006
                  y   0.31476 -0.01193 -0.00004 -0.00010  0.00001 -0.00004
                  z  -0.07219  0.00222 -0.00001  0.00004  0.00000  0.00002
  5   c           x   0.05660 -0.00491 -0.00056  0.00094  0.00002 -0.00004
                  y  -0.46479  0.02080 -0.00019  0.00043 -0.00002  0.00057
                  z   0.11025 -0.00453 -0.00006  0.00005 -0.00002 -0.00019
  6   c           x   0.04386  0.00323 -0.00012  0.00055 -0.00004 -0.00019
                  y   0.18679 -0.00630  0.00120 -0.00146  0.00003 -0.00041
                  z  -0.04244  0.00213 -0.00041  0.00053 -0.00002 -0.00005
  7   c           x  -0.11182  0.00015 -0.00060  0.00028  0.00001  0.00012
                  y   0.18693 -0.02484 -0.00062  0.00063  0.00007 -0.00063
                  z  -0.04886  0.00738  0.00009 -0.00009 -0.00006  0.00005
  8   c           x  -0.02168 -0.00486  0.00027 -0.00021  0.00000 -0.00051
                  y  -0.19893  0.00488  0.00063 -0.00019  0.00004  0.00055
                  z   0.04421 -0.00125 -0.00018  0.00011 -0.00001 -0.00033
  9   n           x  -0.02972  0.00641  0.00013 -0.00025 -0.00003 -0.00019
                  y   0.13527 -0.00264 -0.00045  0.00021 -0.00003 -0.00010
                  z  -0.03174  0.00025  0.00012 -0.00008  0.00001  0.00007
 10   c           x   0.02911 -0.00337 -0.00004  0.00004  0.00000  0.00010
                  y  -0.07457  0.00171  0.00001 -0.00011 -0.00006 -0.00009
                  z   0.01802 -0.00028 -0.00001  0.00004  0.00001  0.00000
 11   h           x  -0.29681  0.01005 -0.00816 -0.01213 -0.00045 -0.00189
                  y   0.27272 -0.00763 -0.00305 -0.00781 -0.00029 -0.00218
                  z  -0.07369  0.00268  0.00008  0.00160  0.00003 -0.00002
 12   o           x   0.01455 -0.00331 -0.00286 -0.00214  0.00004  0.00001
                  y  -0.02640  0.00214 -0.00079 -0.00067 -0.00003 -0.00001
                  z   0.00667 -0.00054  0.00010  0.00009  0.00001 -0.00001
 13   h           x   0.04268 -0.00018  0.00072  0.00048 -0.00003  0.00019
                  y  -0.08150  0.00417 -0.00217  0.00103  0.00027 -0.00100
                  z   0.02098  0.00211  0.00055 -0.00022 -0.00010  0.00017
 14   h           x   0.22678  0.00552  0.00250  0.00082  0.00039  0.00911
                  y   0.26567  0.03998 -0.00134 -0.00042 -0.00013 -0.00551
                  z  -0.05288  0.00199  0.00039  0.00007  0.00003  0.00196
 15   h           x  -0.13115  0.01052  0.00032 -0.00010  0.00009  0.00008
                  y  -0.05202 -0.00057  0.00315 -0.00201  0.00069  0.00085
                  z   0.00253  0.00080 -0.00064  0.00041 -0.00015 -0.00016
 16   c           x   0.00156  0.00644  0.02119 -0.02700 -0.00039 -0.01846
                  y  -0.00678 -0.00728  0.02060 -0.02616 -0.00084 -0.03618
                  z   0.00270 -0.00166 -0.03384  0.04340 -0.00112 -0.04308
 17   c           x   0.00536  0.05697  0.00255 -0.00332 -0.00084  0.02230
                  y   0.00027 -0.02620 -0.00226  0.00302  0.00057 -0.01740
                  z   0.00565 -0.02316  0.00641 -0.00816 -0.00197  0.05192
 18   h           x   0.00777  0.00118 -0.19067  0.24381 -0.00135 -0.03208
                  y  -0.07668  0.01898 -0.14359  0.18374 -0.00140 -0.03239
                  z  -0.01873 -0.00369  0.52756 -0.67478  0.00271  0.06601
 19   h           x   0.01749  0.00901 -0.05134  0.06444  0.00525  0.24001
                  y  -0.05982  0.00181 -0.10620  0.13399  0.01123  0.46916
                  z   0.05470 -0.01592 -0.12212  0.15440  0.01123  0.45178
 20   c           x  -0.02356 -0.70461  0.00002  0.00011  0.00177  0.00108
                  y   0.00101  0.30606 -0.00003 -0.00013  0.00006 -0.00077
                  z  -0.01195 -0.04302  0.00030 -0.00057  0.00211  0.00068
 21   h           x  -0.05627 -0.14209 -0.03116  0.03993  0.00959 -0.26169
                  y  -0.07299  0.13391  0.02674 -0.03406 -0.00821  0.21545
                  z  -0.00196  0.08648 -0.07664  0.09792  0.02176 -0.62422
 22   o           x   0.00185  0.04658 -0.00008  0.00011  0.00044  0.00014
                  y   0.00108 -0.01391 -0.00000  0.00005 -0.00116 -0.00012
                  z   0.00477  0.01742 -0.00000  0.00011 -0.00258 -0.00026
 23   o           x   0.01526  0.45631  0.00004 -0.00014 -0.00076 -0.00041
                  y  -0.00555 -0.19200 -0.00002  0.00008  0.00030  0.00025
                  z   0.00281  0.03885 -0.00006  0.00010 -0.00011 -0.00015
 24   c           x   0.00004 -0.01793  0.00001 -0.00009  0.02846  0.00005
                  y   0.00044  0.01466 -0.00004  0.00016 -0.02194 -0.00003
                  z   0.00097  0.01808  0.00000  0.00008 -0.02507 -0.00030
 25   h           x  -0.00392 -0.05126 -0.00018  0.00235 -0.51728 -0.00325
                  y   0.00125 -0.05015 -0.00020  0.00163 -0.31458 -0.00188
                  z  -0.00782 -0.13107  0.00007 -0.00074  0.16922  0.00112
 26   h           x   0.00993  0.14946  0.00016 -0.00195  0.30359  0.00329
                  y  -0.00831 -0.12092 -0.00001  0.00003  0.00003  0.00023
                  z  -0.00857 -0.14387  0.00017 -0.00203  0.33031  0.00405
 27   h           x  -0.00546 -0.03946 -0.00013  0.00082 -0.14062 -0.00055
                  y  -0.00291 -0.01923  0.00075 -0.00392  0.58995  0.00236
                  z  -0.00821 -0.14590 -0.00024  0.00129 -0.18127 -0.00045
 28   c           x   0.01030  0.00124 -0.01904 -0.01509 -0.00008 -0.00003
                  y   0.01249  0.00040 -0.03205 -0.02531 -0.00015 -0.00008
                  z  -0.00260 -0.00009  0.00674  0.00529  0.00008  0.00000
 29   h           x  -0.07056  0.00044  0.03082  0.02436  0.00012  0.00003
                  y  -0.01311 -0.00176  0.38328  0.30249  0.00124  0.00066
                  z   0.03625  0.00304  0.36559  0.28849  0.00114  0.00062
 30   h           x  -0.07444  0.00347  0.17060  0.13483  0.00039  0.00018
                  y  -0.07112  0.00165 -0.17263 -0.13635 -0.00039 -0.00018
                  z   0.01369 -0.00021  0.04397  0.03470  0.00011  0.00005
 31   h           x  -0.06777  0.00068  0.05580  0.04405  0.00027  0.00002
                  y  -0.02823 -0.00268  0.18958  0.14938  0.00090  0.00025
                  z  -0.03093 -0.00208 -0.49325 -0.38870 -0.00218 -0.00065

reduced mass(g/mol)     8.016   11.339    1.047    1.055    1.029    1.085


       mode              85       86       87       88       89       90

     frequency        2995.71  3004.49  3057.73  3065.39  3080.14  3090.46

     symmetry            a        a        a        a        a        a   

        IR               YES      YES      YES      YES      YES      YES
|dDIP/dQ|   (a.u.)     0.0023   0.0039   0.0029   0.0032   0.0031   0.0032
intensity (km/mol)       9.08    26.41    14.73    18.36    16.98    18.23
intensity (  %   )       2.84     8.27     4.61     5.75     5.32     5.71
 
       RAMAN             YES      YES      YES      YES      YES      YES
 
  1   c           x  -0.00013 -0.00006  0.00002  0.00023 -0.00198 -0.00018
                  y   0.00032 -0.00005  0.00001  0.00003 -0.00130 -0.00074
                  z  -0.00004 -0.00002 -0.00001  0.00000  0.00022  0.00016
  2   c           x   0.00002  0.00000 -0.00001  0.00006  0.00095 -0.00005
                  y  -0.00020  0.00007 -0.00000  0.00020  0.00009  0.00041
                  z   0.00000  0.00031  0.00000 -0.00005  0.00002 -0.00009
  3   c           x  -0.00020  0.00000  0.00000 -0.00019  0.00005  0.00002
                  y  -0.00003 -0.00001  0.00001 -0.00035  0.00003  0.00301
                  z   0.00001 -0.00007 -0.00000  0.00008 -0.00000 -0.00070
  4   c           x   0.00048 -0.00000  0.00001  0.00077 -0.00000  0.00173
                  y   0.00002  0.00001  0.00001  0.00005  0.00001  0.00041
                  z  -0.00000  0.00003  0.00000  0.00003 -0.00000 -0.00004
  5   c           x   0.00061 -0.00000 -0.00002 -0.00091 -0.00002 -0.00000
                  y  -0.00019  0.00001  0.00001  0.00049  0.00001  0.00077
                  z  -0.00039  0.00003 -0.00000 -0.00016 -0.00000 -0.00019
  6   c           x   0.00039  0.00001 -0.00001  0.00004  0.00006 -0.00030
                  y  -0.00073 -0.00002 -0.00002 -0.00001 -0.00012  0.00016
                  z  -0.00011 -0.00009  0.00001  0.00001  0.00003 -0.00004
  7   c           x   0.00054  0.00000  0.00001 -0.00145  0.00000 -0.00015
                  y   0.00108 -0.00000 -0.00004 -0.00166 -0.00001 -0.00025
                  z  -0.00038 -0.00001 -0.00001  0.00034  0.00000  0.00008
  8   c           x   0.00039  0.00000  0.00090  0.07580 -0.00001 -0.00561
                  y  -0.00090 -0.00001 -0.00047 -0.03811 -0.00001  0.00467
                  z   0.00020 -0.00002  0.00013  0.01069  0.00000 -0.00120
  9   n           x   0.00004  0.00000  0.00001  0.00005  0.00000  0.00117
                  y   0.00032  0.00000 -0.00001 -0.00068  0.00001 -0.00093
                  z  -0.00006  0.00000 -0.00000  0.00019 -0.00000  0.00025
 10   c           x  -0.00011 -0.00000 -0.00003 -0.00230 -0.00003 -0.01162
                  y   0.00013  0.00001 -0.00007 -0.00470 -0.00026 -0.08240
                  z  -0.00002  0.00001  0.00001  0.00089  0.00005  0.01743
 11   h           x  -0.00193  0.00065 -0.00013 -0.00261  0.02439  0.00738
                  y  -0.00189  0.00074 -0.00011 -0.00186  0.01381  0.00479
                  z  -0.00014  0.00117  0.00002  0.00032 -0.00220 -0.00080
 12   o           x   0.00003 -0.00001  0.00001  0.00011 -0.00030 -0.00015
                  y  -0.00001  0.00001 -0.00000 -0.00007 -0.00016  0.00002
                  z   0.00002  0.00004 -0.00000  0.00002  0.00001 -0.00001
 13   h           x  -0.00020  0.00001  0.00002 -0.00075 -0.00016  0.00170
                  y   0.00235 -0.00007 -0.00014  0.00443 -0.00066 -0.04248
                  z  -0.00046 -0.00012  0.00004 -0.00105  0.00015  0.01005
 14   h           x  -0.01031 -0.00001 -0.01052 -0.87184 -0.00014  0.06219
                  y   0.00601  0.00004  0.00555  0.45889  0.00005 -0.03300
                  z  -0.00211  0.00013 -0.00149 -0.12701 -0.00002  0.00892
 15   h           x  -0.00035  0.00000  0.00013  0.00792  0.00032  0.10827
                  y  -0.00363 -0.00006  0.00109  0.07145  0.00297  0.96524
                  z   0.00083 -0.00010 -0.00021 -0.01529 -0.00063 -0.20519
 16   c           x  -0.01120  0.00000 -0.00009  0.00004 -0.00000 -0.00014
                  y  -0.03069 -0.00002 -0.00011  0.00010  0.00001 -0.00029
                  z  -0.05561 -0.00008 -0.00010  0.00014  0.00001  0.00002
 17   c           x  -0.02152 -0.00003 -0.00010  0.00079  0.00001 -0.00018
                  y   0.01675  0.00002 -0.00017 -0.00030 -0.00000  0.00014
                  z  -0.05018 -0.00004  0.00004  0.00111  0.00004 -0.00035
 18   h           x  -0.10216 -0.00017  0.00006  0.00072  0.00002  0.00064
                  y  -0.08323 -0.00018  0.00007  0.00060  0.00003  0.00063
                  z   0.25089  0.00052 -0.00027 -0.00158 -0.00000 -0.00201
 19   h           x   0.23229  0.00015  0.00082  0.00000 -0.00005  0.00083
                  y   0.45121  0.00034  0.00155 -0.00026 -0.00013  0.00191
                  z   0.42823  0.00027  0.00153 -0.00045 -0.00016  0.00181
 20   c           x  -0.00176 -0.00001  0.00016  0.00059  0.00002 -0.00008
                  y   0.00057 -0.00000  0.00023 -0.00013 -0.00002  0.00006
                  z  -0.00164 -0.00002 -0.00008  0.00001 -0.00002  0.00009
 21   h           x   0.25185  0.00029  0.00025 -0.00496 -0.00020  0.00174
                  y  -0.20896 -0.00025 -0.00002  0.00581  0.00016 -0.00168
                  z   0.60256  0.00066  0.00059 -0.01351 -0.00040  0.00415
 22   o           x   0.00058  0.00001  0.00010 -0.00007 -0.00000 -0.00000
                  y   0.00009  0.00000  0.00026  0.00003  0.00001 -0.00002
                  z   0.00028  0.00001 -0.00013 -0.00003  0.00001 -0.00005
 23   o           x   0.00044  0.00000  0.00002 -0.00032 -0.00001  0.00005
                  y  -0.00013  0.00000  0.00008  0.00001  0.00001 -0.00002
                  z   0.00032  0.00001 -0.00000 -0.00000  0.00000 -0.00001
 24   c           x  -0.00075  0.00003 -0.03403  0.00017  0.00004 -0.00084
                  y   0.00089 -0.00002 -0.08207  0.00099 -0.00003  0.00016
                  z   0.00089  0.00000  0.03229 -0.00061  0.00001 -0.00055
 25   h           x   0.01477 -0.00026  0.59006 -0.00650 -0.00021  0.00301
                  y   0.00886 -0.00015  0.33858 -0.00360 -0.00012  0.00193
                  z  -0.00514  0.00009 -0.17973  0.00208  0.00008 -0.00115
 26   h           x  -0.00980 -0.00001 -0.01253  0.00244 -0.00009  0.00617
                  y  -0.00006  0.00001 -0.01739  0.00021 -0.00000 -0.00001
                  z  -0.01085  0.00000  0.00091  0.00262 -0.00010  0.00668
 27   h           x   0.00467 -0.00010 -0.17482  0.00214 -0.00011  0.00076
                  y  -0.01953  0.00043  0.65059 -0.00827  0.00044 -0.00377
                  z   0.00557 -0.00012 -0.20374  0.00265 -0.00012  0.00104
 28   c           x  -0.00007  0.00270 -0.00001 -0.00011 -0.05222  0.00025
                  y   0.00001 -0.02081 -0.00002 -0.00016  0.07276 -0.00016
                  z   0.00008 -0.09169  0.00001  0.00003 -0.01806  0.00004
 29   h           x   0.00006  0.03568  0.00001  0.00014 -0.01828 -0.00016
                  y  -0.00006  0.52546  0.00010  0.00139 -0.13778 -0.00023
                  z   0.00003  0.46758  0.00011  0.00120 -0.15014 -0.00009
 30   h           x   0.00063  0.00018 -0.00004  0.00038  0.66105 -0.00251
                  y  -0.00059 -0.00474  0.00004 -0.00038 -0.66402  0.00243
                  z   0.00019 -0.02305 -0.00001  0.00010  0.16950 -0.00062
 31   h           x   0.00017 -0.06780  0.00003  0.00023 -0.02840 -0.00017
                  y   0.00050 -0.27350  0.00011  0.00074 -0.06055 -0.00019
                  z  -0.00125  0.64435 -0.00027 -0.00166  0.19459  0.00021

reduced mass(g/mol)     1.090    1.105    1.106    1.089    1.100    1.088


       mode              91       92       93

     frequency        3093.32  3125.89  3143.98

     symmetry            a        a        a   

        IR               YES      YES      YES
|dDIP/dQ|   (a.u.)     0.0023   0.0017   0.0020
intensity (km/mol)       9.73     5.23     7.40
intensity (  %   )       3.05     1.64     2.32
 
       RAMAN             YES      YES      YES
 
  1   c           x   0.00006  0.00078  0.07099
                  y   0.00003 -0.00022  0.04720
                  z   0.00000  0.00008 -0.00798
  2   c           x  -0.00001 -0.00214  0.00132
                  y  -0.00000  0.00018 -0.00307
                  z  -0.00000 -0.00013  0.00077
  3   c           x   0.00001 -0.00963 -0.00108
                  y  -0.00006  0.08233 -0.00117
                  z   0.00002 -0.01986  0.00023
  4   c           x  -0.00002  0.00175  0.00058
                  y  -0.00001 -0.00066  0.00005
                  z   0.00000  0.00022  0.00001
  5   c           x  -0.00000 -0.00026 -0.00105
                  y  -0.00001 -0.00086 -0.00051
                  z  -0.00000  0.00017  0.00008
  6   c           x  -0.00000  0.00013 -0.00121
                  y   0.00002  0.00015  0.00166
                  z   0.00000 -0.00002 -0.00042
  7   c           x   0.00003 -0.00024  0.00045
                  y   0.00001 -0.00027  0.00014
                  z  -0.00001  0.00007 -0.00002
  8   c           x  -0.00021  0.00107 -0.00057
                  y   0.00009  0.00017 -0.00019
                  z  -0.00003  0.00000  0.00002
  9   n           x  -0.00001 -0.00004  0.00007
                  y  -0.00000 -0.00049  0.00022
                  z  -0.00000  0.00010 -0.00004
 10   c           x   0.00013  0.00088 -0.00036
                  y   0.00091  0.00403 -0.00085
                  z  -0.00019 -0.00084  0.00017
 11   h           x  -0.00062 -0.00915 -0.83912
                  y  -0.00040 -0.00503 -0.52873
                  z   0.00003  0.00078  0.08757
 12   o           x   0.00002  0.00032  0.00020
                  y  -0.00001 -0.00001  0.00028
                  z   0.00000  0.00001 -0.00006
 13   h           x  -0.00005  0.10845  0.00008
                  y   0.00078 -0.96189  0.00925
                  z  -0.00021  0.23190 -0.00216
 14   h           x   0.00244 -0.00650  0.00333
                  y  -0.00118  0.00340 -0.00160
                  z   0.00039 -0.00094  0.00044
 15   h           x  -0.00119 -0.00756  0.00104
                  y  -0.01067 -0.04047  0.00856
                  z   0.00226  0.00848 -0.00182
 16   c           x   0.00004 -0.00004  0.00033
                  y   0.00005 -0.00009  0.00035
                  z   0.00005  0.00002 -0.00007
 17   c           x  -0.00001 -0.00008  0.00005
                  y   0.00003  0.00016 -0.00011
                  z  -0.00015 -0.00015  0.00004
 18   h           x   0.00005  0.00034 -0.00083
                  y   0.00003  0.00048 -0.00225
                  z  -0.00007 -0.00118  0.00425
 19   h           x  -0.00043  0.00037 -0.00090
                  y  -0.00083  0.00094 -0.00445
                  z  -0.00090  0.00074 -0.00276
 20   c           x  -0.00097  0.00000 -0.00002
                  y   0.00069 -0.00003  0.00007
                  z   0.00052 -0.00004  0.00008
 21   h           x   0.00093  0.00076 -0.00009
                  y  -0.00072 -0.00068  0.00018
                  z   0.00220  0.00194 -0.00053
 22   o           x   0.00017 -0.00001 -0.00001
                  y  -0.00003  0.00001 -0.00001
                  z   0.00018  0.00001 -0.00003
 23   o           x   0.00050  0.00000  0.00002
                  y  -0.00028  0.00001 -0.00002
                  z  -0.00012  0.00001 -0.00001
 24   c           x  -0.07617 -0.00001  0.00004
                  y   0.01004  0.00001  0.00002
                  z  -0.05462 -0.00004  0.00006
 25   h           x   0.24925 -0.00017 -0.00001
                  y   0.16520 -0.00008 -0.00004
                  z  -0.09554  0.00004 -0.00001
 26   h           x   0.60541  0.00028 -0.00050
                  y   0.00062  0.00001 -0.00001
                  z   0.65843  0.00030 -0.00059
 27   h           x   0.05272  0.00000  0.00006
                  y  -0.28818 -0.00006 -0.00013
                  z   0.08092  0.00004  0.00002
 28   c           x  -0.00004  0.00019 -0.00071
                  y   0.00001 -0.00011  0.00232
                  z  -0.00003  0.00004 -0.00063
 29   h           x   0.00003 -0.00044  0.00043
                  y   0.00021 -0.00071 -0.01158
                  z   0.00016 -0.00058 -0.01148
 30   h           x   0.00033  0.00007  0.01328
                  y  -0.00032  0.00057 -0.01714
                  z   0.00008 -0.00012  0.00427
 31   h           x   0.00000 -0.00049 -0.00047
                  y  -0.00002 -0.00039 -0.00599
                  z   0.00009  0.00077  0.01646

reduced mass(g/mol)     1.106    1.088    1.089
 

         **************************************************************
         *                                                            *
         *  zero point VIBRATIONAL energy  :      0.2343521  Hartree  *
         *    SCF-energy                   :   -822.0765419           *
         *    SCF + E(vib0)                :   -821.8421898           *
         *                                                            *
         **************************************************************




 time elapsed for vibrational analysis     2.59 sec


    ------------------------------------------------------------------------
         total  cpu-time :   4 days 13 hours  4 minutes and 48 seconds
         total wall-time :  6 hours 52 minutes and 28 seconds
    ------------------------------------------------------------------------

   ****  force : all done  ****


    2018-07-31 00:44:35.172 

aoforce ended normally 
